# Moment      
# CofR        : (0.000000e+00 0.000000e+00 0.000000e+00)
#
# Time        	(total_x total_y total_z)	(pressure_x pressure_y pressure_z)	(viscous_x viscous_y viscous_z)
0.00375       	(-5.134688e-05 1.419971e-04 -3.161896e-08)	(-4.244446e-05 1.512075e-04 2.211755e-08)	(-8.902424e-06 -9.210354e-06 -5.373651e-08)
0.0075        	(-2.944833e-05 -5.110183e-05 -5.749580e-08)	(-1.806208e-05 -3.456159e-05 3.553230e-09)	(-1.138625e-05 -1.654024e-05 -6.104903e-08)
0.01125       	(-3.611009e-05 -4.720670e-05 -4.864506e-08)	(-2.823188e-05 -2.655462e-05 -5.416171e-10)	(-7.878211e-06 -2.065208e-05 -4.810344e-08)
0.015         	(-3.766615e-05 -3.526163e-05 -3.139032e-08)	(-3.439674e-05 -1.389975e-05 3.105580e-10)	(-3.269413e-06 -2.136187e-05 -3.170088e-08)
0.01875       	(-2.265676e-05 -3.421256e-05 -1.768505e-08)	(-2.247884e-05 -1.326252e-05 6.748430e-10)	(-1.779171e-07 -2.095005e-05 -1.835989e-08)
0.0225        	(-1.270212e-05 -3.161489e-05 -1.009460e-08)	(-1.489860e-05 -1.117989e-05 7.009630e-10)	(2.196480e-06 -2.043500e-05 -1.079556e-08)
0.02625       	(-4.784108e-06 -3.430635e-05 -5.956754e-09)	(-8.710055e-06 -1.449676e-05 6.842467e-10)	(3.925947e-06 -1.980959e-05 -6.641000e-09)
0.03          	(-1.758585e-05 -2.107621e-05 -3.374891e-09)	(-2.236485e-05 -2.176624e-06 6.521285e-10)	(4.778993e-06 -1.889959e-05 -4.027019e-09)
0.03375       	(-9.854415e-06 -2.465670e-05 -1.198543e-09)	(-1.519235e-05 -6.636392e-06 6.649236e-10)	(5.337935e-06 -1.802031e-05 -1.863467e-09)
0.0375        	(-7.587174e-06 -2.276248e-05 -8.292262e-10)	(-1.334850e-05 -5.458610e-06 6.545191e-10)	(5.761322e-06 -1.730387e-05 -1.483745e-09)
0.04125       	(-9.851302e-06 -1.978043e-05 -7.263739e-10)	(-1.582999e-05 -3.149639e-06 6.426473e-10)	(5.978687e-06 -1.663079e-05 -1.369021e-09)
0.045         	(-8.321945e-06 -1.892294e-05 2.549991e-10)	(-1.439206e-05 -2.920371e-06 6.375228e-10)	(6.070115e-06 -1.600257e-05 -3.825237e-10)
0.04875       	(-8.666567e-06 -1.813799e-05 8.443648e-10)	(-1.477902e-05 -2.679534e-06 6.286162e-10)	(6.112454e-06 -1.545845e-05 2.157486e-10)
0.0525        	(-8.383659e-06 -1.688129e-05 1.187650e-09)	(-1.449340e-05 -1.915435e-06 6.214792e-10)	(6.109740e-06 -1.496586e-05 5.661704e-10)
0.05625       	(-7.412899e-06 -1.611309e-05 2.428030e-09)	(-1.349333e-05 -1.598507e-06 6.155900e-10)	(6.080433e-06 -1.451459e-05 1.812440e-09)
0.06          	(-7.598480e-06 -1.460266e-05 2.893405e-09)	(-1.364164e-05 -4.928853e-07 6.054665e-10)	(6.043161e-06 -1.410977e-05 2.287938e-09)
0.06375       	(-7.411313e-06 -1.456569e-05 2.755192e-09)	(-1.340978e-05 -8.245979e-07 5.870672e-10)	(5.998469e-06 -1.374109e-05 2.168125e-09)
0.0675        	(-4.488588e-06 -1.471134e-05 4.211937e-09)	(-1.032838e-05 -1.341063e-06 5.497019e-10)	(5.839796e-06 -1.337028e-05 3.662235e-09)
0.07125       	(-9.676257e-06 -1.262050e-05 4.708224e-09)	(-1.539643e-05 4.083178e-07 5.525793e-10)	(5.720169e-06 -1.302881e-05 4.155645e-09)
0.075         	(-8.970601e-06 -1.252415e-05 4.840420e-09)	(-1.474396e-05 2.405341e-07 6.044519e-10)	(5.773362e-06 -1.276468e-05 4.235968e-09)
0.07875       	(-6.780522e-06 -1.208806e-05 5.278926e-09)	(-1.262884e-05 4.464915e-07 5.695758e-10)	(5.848317e-06 -1.253455e-05 4.709351e-09)
0.0825        	(-7.262882e-06 -1.176709e-05 5.997386e-09)	(-1.313958e-05 5.368184e-07 5.282948e-10)	(5.876702e-06 -1.230391e-05 5.469091e-09)
0.08625       	(-5.312504e-06 -1.203172e-05 6.973576e-09)	(-1.119867e-05 5.234057e-08 5.215420e-10)	(5.886169e-06 -1.208406e-05 6.452034e-09)
0.09          	(-5.635144e-06 -1.179731e-05 7.812750e-09)	(-1.152577e-05 8.604085e-08 5.066449e-10)	(5.890625e-06 -1.188335e-05 7.306105e-09)
0.09375       	(-5.439105e-06 -1.187718e-05 7.775053e-09)	(-1.131887e-05 -1.848645e-07 4.922875e-10)	(5.879761e-06 -1.169232e-05 7.282766e-09)
0.0975        	(-4.418020e-06 -1.207585e-05 7.373237e-09)	(-1.027438e-05 -5.689911e-07 4.781391e-10)	(5.856362e-06 -1.150686e-05 6.895098e-09)
0.10125       	(-3.169339e-06 -1.268827e-05 7.254869e-09)	(-8.992701e-06 -1.355335e-06 4.674184e-10)	(5.823362e-06 -1.133293e-05 6.787451e-09)
0.105         	(-3.601209e-06 -1.237460e-05 7.677718e-09)	(-9.387502e-06 -1.207154e-06 4.560213e-10)	(5.786292e-06 -1.116744e-05 7.221697e-09)
0.10875       	(-2.241507e-06 -1.205264e-05 8.343369e-09)	(-7.984391e-06 -1.048547e-06 4.416441e-10)	(5.742884e-06 -1.100409e-05 7.901725e-09)
0.1125        	(-1.435945e-06 -1.296979e-05 8.454170e-09)	(-7.125425e-06 -2.118390e-06 4.323795e-10)	(5.689480e-06 -1.085140e-05 8.021790e-09)
0.11625       	(-1.583493e-06 -1.294778e-05 8.367983e-09)	(-7.214091e-06 -2.246494e-06 4.204163e-10)	(5.630598e-06 -1.070129e-05 7.947566e-09)
0.12          	(-8.083103e-07 -1.345552e-05 8.452979e-09)	(-6.380473e-06 -2.901977e-06 4.110462e-10)	(5.572163e-06 -1.055354e-05 8.041932e-09)
0.12375       	(-3.293593e-07 -1.313248e-05 8.555636e-09)	(-5.845103e-06 -2.716355e-06 3.943376e-10)	(5.515743e-06 -1.041612e-05 8.161298e-09)
0.1275        	(-7.179472e-07 -1.328724e-05 8.699459e-09)	(-6.169200e-06 -3.015802e-06 3.906430e-10)	(5.451253e-06 -1.027144e-05 8.308816e-09)
0.13125       	(1.544951e-07 -1.404628e-05 8.825241e-09)	(-5.220215e-06 -3.924537e-06 3.799591e-10)	(5.374711e-06 -1.012174e-05 8.445282e-09)
0.135         	(4.591888e-09 -1.403500e-05 8.780596e-09)	(-5.290251e-06 -4.058635e-06 3.698652e-10)	(5.294843e-06 -9.976369e-06 8.410731e-09)
0.13875       	(6.363215e-07 -1.354426e-05 8.960336e-09)	(-4.578821e-06 -3.708404e-06 3.458157e-10)	(5.215143e-06 -9.835853e-06 8.614520e-09)
0.1425        	(4.288248e-07 -1.389165e-05 8.906788e-09)	(-4.700476e-06 -4.180622e-06 3.481903e-10)	(5.129301e-06 -9.711026e-06 8.558598e-09)
0.14625       	(-5.790189e-08 -1.330267e-05 8.722585e-09)	(-5.103275e-06 -3.684316e-06 3.399652e-10)	(5.045373e-06 -9.618353e-06 8.382620e-09)
0.15          	(4.068894e-07 -1.451949e-05 8.548600e-09)	(-4.548210e-06 -5.025783e-06 3.319789e-10)	(4.955099e-06 -9.493702e-06 8.216621e-09)
0.15375       	(8.275521e-07 -1.549577e-05 8.195158e-09)	(-4.035928e-06 -6.141301e-06 3.205475e-10)	(4.863480e-06 -9.354474e-06 7.874610e-09)
0.1575        	(6.250574e-07 -1.529967e-05 7.961069e-09)	(-4.153006e-06 -6.082365e-06 3.318490e-10)	(4.778063e-06 -9.217305e-06 7.629220e-09)
0.16125       	(-5.040336e-07 -1.406756e-05 7.861553e-09)	(-5.195162e-06 -4.981000e-06 3.038741e-10)	(4.691129e-06 -9.086560e-06 7.557679e-09)
0.165         	(4.978965e-07 -1.371527e-05 7.767538e-09)	(-4.103349e-06 -4.739471e-06 2.833987e-10)	(4.601245e-06 -8.975799e-06 7.484139e-09)
0.16875       	(-6.537682e-09 -1.470927e-05 7.708594e-09)	(-4.520492e-06 -5.856250e-06 3.052996e-10)	(4.513955e-06 -8.853018e-06 7.403294e-09)
0.1725        	(-7.138930e-07 -1.508236e-05 7.630615e-09)	(-5.144654e-06 -6.355693e-06 2.791551e-10)	(4.430761e-06 -8.726667e-06 7.351460e-09)
0.17625       	(-1.352713e-06 -1.432991e-05 7.732416e-09)	(-5.703223e-06 -5.710658e-06 2.648701e-10)	(4.350510e-06 -8.619256e-06 7.467546e-09)
0.18          	(-1.634827e-06 -1.459324e-05 7.764744e-09)	(-5.875656e-06 -6.053938e-06 2.532500e-10)	(4.240829e-06 -8.539304e-06 7.511494e-09)
0.18375       	(-1.042929e-06 -1.458571e-05 7.563134e-09)	(-5.164484e-06 -6.120382e-06 2.402545e-10)	(4.121555e-06 -8.465326e-06 7.322879e-09)
0.1875        	(-8.396328e-07 -1.497914e-05 7.511312e-09)	(-4.868460e-06 -6.602554e-06 2.388017e-10)	(4.028827e-06 -8.376590e-06 7.272510e-09)
0.19125       	(-2.879486e-06 -1.364930e-05 7.374322e-09)	(-6.813481e-06 -5.379621e-06 2.033779e-10)	(3.933995e-06 -8.269682e-06 7.170944e-09)
0.195         	(-2.164866e-06 -1.447824e-05 7.099310e-09)	(-6.013594e-06 -6.303691e-06 2.240536e-10)	(3.848728e-06 -8.174549e-06 6.875256e-09)
0.19875       	(-2.648947e-06 -1.423473e-05 6.776143e-09)	(-6.415450e-06 -6.145638e-06 2.033784e-10)	(3.766503e-06 -8.089094e-06 6.572765e-09)
0.2025        	(-2.569158e-06 -1.397587e-05 6.617511e-09)	(-6.263381e-06 -5.963409e-06 1.750755e-10)	(3.694223e-06 -8.012456e-06 6.442436e-09)
0.20625       	(-4.473506e-06 -1.427386e-05 6.504264e-09)	(-8.069573e-06 -6.349074e-06 1.998272e-10)	(3.596067e-06 -7.924787e-06 6.304437e-09)
0.21          	(-4.765151e-06 -1.464985e-05 6.316085e-09)	(-8.265122e-06 -6.809975e-06 1.933516e-10)	(3.499971e-06 -7.839880e-06 6.122733e-09)
0.21375       	(-4.511773e-06 -1.464888e-05 6.062071e-09)	(-7.921652e-06 -6.889092e-06 1.704093e-10)	(3.409879e-06 -7.759791e-06 5.891662e-09)
0.2175        	(-4.643311e-06 -1.431659e-05 5.940486e-09)	(-7.967498e-06 -6.634438e-06 1.667362e-10)	(3.324188e-06 -7.682150e-06 5.773750e-09)
0.22125       	(-5.617287e-06 -1.391169e-05 5.816585e-09)	(-8.854789e-06 -6.305080e-06 1.581123e-10)	(3.237502e-06 -7.606608e-06 5.658473e-09)
0.225         	(-6.133688e-06 -1.412733e-05 5.619437e-09)	(-9.281238e-06 -6.597117e-06 1.516444e-10)	(3.147551e-06 -7.530210e-06 5.467793e-09)
0.22875       	(-6.208320e-06 -1.410300e-05 5.353863e-09)	(-9.263336e-06 -6.651272e-06 1.514462e-10)	(3.055016e-06 -7.451723e-06 5.202417e-09)
0.2325        	(-7.050929e-06 -1.450000e-05 5.081358e-09)	(-1.001304e-05 -7.128839e-06 1.470692e-10)	(2.962116e-06 -7.371158e-06 4.934289e-09)
0.23625       	(-6.953932e-06 -1.436920e-05 4.762211e-09)	(-9.814128e-06 -7.087832e-06 1.288895e-10)	(2.860196e-06 -7.281372e-06 4.633322e-09)
0.24          	(-7.167232e-06 -1.450003e-05 4.509827e-09)	(-9.917023e-06 -7.318156e-06 1.174189e-10)	(2.749791e-06 -7.181872e-06 4.392409e-09)
0.24375       	(-8.537780e-06 -1.393603e-05 4.311462e-09)	(-1.116748e-05 -6.855524e-06 1.097950e-10)	(2.629696e-06 -7.080501e-06 4.201667e-09)
0.2475        	(-8.206738e-06 -1.441392e-05 4.080305e-09)	(-1.072259e-05 -7.433305e-06 9.809963e-11)	(2.515857e-06 -6.980618e-06 3.982206e-09)
0.25125       	(-9.173763e-06 -1.417070e-05 3.817984e-09)	(-1.157738e-05 -7.280412e-06 9.973594e-11)	(2.403619e-06 -6.890292e-06 3.718249e-09)
0.255         	(-9.518647e-06 -1.382107e-05 3.557905e-09)	(-1.180335e-05 -7.025963e-06 9.277636e-11)	(2.284700e-06 -6.795104e-06 3.465129e-09)
0.25875       	(-1.062779e-05 -1.344771e-05 3.295939e-09)	(-1.279678e-05 -6.753170e-06 7.959069e-11)	(2.168994e-06 -6.694538e-06 3.216349e-09)
0.2625        	(-1.066461e-05 -1.392012e-05 3.117027e-09)	(-1.272243e-05 -7.320910e-06 7.105108e-11)	(2.057819e-06 -6.599215e-06 3.045976e-09)
0.26625       	(-1.060290e-05 -1.351923e-05 3.009331e-09)	(-1.255044e-05 -7.010044e-06 6.744767e-11)	(1.947538e-06 -6.509187e-06 2.941883e-09)
0.27          	(-1.125246e-05 -1.425629e-05 2.909681e-09)	(-1.309257e-05 -7.829798e-06 6.374788e-11)	(1.840102e-06 -6.426493e-06 2.845933e-09)
0.27375       	(-1.139068e-05 -1.301214e-05 2.699104e-09)	(-1.312602e-05 -6.669484e-06 5.624011e-11)	(1.735331e-06 -6.342656e-06 2.642863e-09)
0.2775        	(-1.249679e-05 -1.352603e-05 2.343873e-09)	(-1.412657e-05 -7.257890e-06 4.543612e-11)	(1.629775e-06 -6.268144e-06 2.298436e-09)
0.28125       	(-1.258879e-05 -1.331446e-05 1.982853e-09)	(-1.411655e-05 -7.119689e-06 3.950588e-11)	(1.527761e-06 -6.194769e-06 1.943348e-09)
0.285         	(-1.336438e-05 -1.327395e-05 1.678813e-09)	(-1.479419e-05 -7.152268e-06 3.461174e-11)	(1.429813e-06 -6.121686e-06 1.644201e-09)
0.28875       	(-1.387004e-05 -1.256204e-05 1.435278e-09)	(-1.520507e-05 -6.514699e-06 2.768321e-11)	(1.335036e-06 -6.047342e-06 1.407595e-09)
0.2925        	(-1.412739e-05 -1.274910e-05 1.133202e-09)	(-1.537207e-05 -6.770710e-06 2.406610e-11)	(1.244678e-06 -5.978389e-06 1.109136e-09)
0.29625       	(-1.499859e-05 -1.207550e-05 8.717429e-10)	(-1.615177e-05 -6.167178e-06 1.835321e-11)	(1.153175e-06 -5.908320e-06 8.533897e-10)
0.3           	(-1.535485e-05 -1.213133e-05 6.786611e-10)	(-1.641622e-05 -6.295574e-06 1.163032e-11)	(1.061364e-06 -5.835752e-06 6.670308e-10)
0.30375       	(-1.563638e-05 -1.233302e-05 4.922373e-10)	(-1.661174e-05 -6.564292e-06 5.161518e-12)	(9.753589e-07 -5.768726e-06 4.870758e-10)
0.3075        	(-1.563674e-05 -1.131588e-05 3.382269e-10)	(-1.652676e-05 -5.615500e-06 -3.834775e-12)	(8.900187e-07 -5.700379e-06 3.420617e-10)
0.31125       	(-1.630144e-05 -1.169761e-05 2.334355e-10)	(-1.710820e-05 -6.063864e-06 -5.008259e-12)	(8.067598e-07 -5.633743e-06 2.384437e-10)
0.315         	(-1.665702e-05 -1.145518e-05 7.398249e-11)	(-1.738297e-05 -5.886332e-06 -9.815302e-12)	(7.259451e-07 -5.568852e-06 8.379779e-11)
0.31875       	(-1.699486e-05 -1.178133e-05 -2.071917e-10)	(-1.763835e-05 -6.273050e-06 -1.515350e-11)	(6.434912e-07 -5.508276e-06 -1.920382e-10)
0.3225        	(-1.794359e-05 -1.129059e-05 -4.985402e-10)	(-1.850526e-05 -5.843154e-06 -2.043676e-11)	(5.616695e-07 -5.447434e-06 -4.781034e-10)
0.32625       	(-1.643448e-05 -1.138401e-05 -6.992187e-10)	(-1.692152e-05 -5.998735e-06 -2.803285e-11)	(4.870390e-07 -5.385273e-06 -6.711859e-10)
0.33          	(-1.900131e-05 -9.878425e-06 -7.891592e-10)	(-1.941297e-05 -4.556125e-06 -3.291828e-11)	(4.116571e-07 -5.322299e-06 -7.562409e-10)
0.33375       	(-1.863242e-05 -9.987854e-06 -8.143954e-10)	(-1.897098e-05 -4.728039e-06 -3.816080e-11)	(3.385670e-07 -5.259814e-06 -7.762346e-10)
0.3375        	(-1.891169e-05 -1.034282e-05 -8.745141e-10)	(-1.918102e-05 -5.140477e-06 -4.249479e-11)	(2.693374e-07 -5.202345e-06 -8.320193e-10)
0.34125       	(-1.857475e-05 -9.452321e-06 -9.616976e-10)	(-1.877633e-05 -4.309563e-06 -4.389316e-11)	(2.015754e-07 -5.142758e-06 -9.178044e-10)
0.345         	(-1.912630e-05 -9.860030e-06 -1.081917e-09)	(-1.926170e-05 -4.773674e-06 -4.913134e-11)	(1.354031e-07 -5.086356e-06 -1.032786e-09)
0.34875       	(-1.874311e-05 -9.420013e-06 -1.207742e-09)	(-1.881506e-05 -4.388327e-06 -5.385860e-11)	(7.195558e-08 -5.031686e-06 -1.153884e-09)
0.3525        	(-1.957686e-05 -9.723523e-06 -1.387550e-09)	(-1.958558e-05 -4.742850e-06 -5.678646e-11)	(8.712694e-09 -4.980673e-06 -1.330763e-09)
0.35625       	(-1.957145e-05 -8.243689e-06 -1.581903e-09)	(-1.951688e-05 -3.315715e-06 -6.285810e-11)	(-5.457253e-08 -4.927974e-06 -1.519045e-09)
0.36          	(-1.976106e-05 -8.680201e-06 -1.679597e-09)	(-1.964575e-05 -3.804582e-06 -6.508382e-11)	(-1.153165e-07 -4.875618e-06 -1.614513e-09)
0.36375       	(-2.024686e-05 -8.397130e-06 -1.745877e-09)	(-2.007416e-05 -3.568885e-06 -6.830246e-11)	(-1.727027e-07 -4.828245e-06 -1.677574e-09)
0.3675        	(-1.981502e-05 -9.143350e-06 -1.814847e-09)	(-1.958795e-05 -4.362914e-06 -7.169091e-11)	(-2.270796e-07 -4.780436e-06 -1.743156e-09)
0.37125       	(-1.997104e-05 -7.749616e-06 -1.828087e-09)	(-1.968939e-05 -3.022959e-06 -7.518553e-11)	(-2.816500e-07 -4.726657e-06 -1.752901e-09)
0.375         	(-1.965689e-05 -7.350092e-06 -1.846469e-09)	(-1.932304e-05 -2.679176e-06 -7.949023e-11)	(-3.338417e-07 -4.670915e-06 -1.766979e-09)
0.37875       	(-1.991744e-05 -8.067510e-06 -1.898230e-09)	(-1.953489e-05 -3.447377e-06 -7.997179e-11)	(-3.825455e-07 -4.620133e-06 -1.818258e-09)
0.3825        	(-1.961420e-05 -7.373897e-06 -1.942895e-09)	(-1.918227e-05 -2.806877e-06 -8.244251e-11)	(-4.319263e-07 -4.567020e-06 -1.860452e-09)
0.38625       	(-1.978751e-05 -7.005847e-06 -1.994128e-09)	(-1.931068e-05 -2.490243e-06 -8.398014e-11)	(-4.768287e-07 -4.515604e-06 -1.910148e-09)
0.39          	(-1.995324e-05 -6.915762e-06 -2.012008e-09)	(-1.943294e-05 -2.450379e-06 -8.649060e-11)	(-5.203031e-07 -4.465384e-06 -1.925518e-09)
0.39375       	(-2.001041e-05 -6.588475e-06 -2.036642e-09)	(-1.944880e-05 -2.172328e-06 -8.948159e-11)	(-5.616085e-07 -4.416148e-06 -1.947161e-09)
0.3975        	(-2.020496e-05 -6.357005e-06 -2.048790e-09)	(-1.960343e-05 -1.989607e-06 -9.449305e-11)	(-6.015246e-07 -4.367399e-06 -1.954297e-09)
0.40125       	(-1.902287e-05 -6.286160e-06 -2.061358e-09)	(-1.838477e-05 -1.967723e-06 -1.001516e-10)	(-6.381012e-07 -4.318437e-06 -1.961207e-09)
0.405         	(-1.974851e-05 -5.768702e-06 -2.088753e-09)	(-1.907376e-05 -1.500328e-06 -1.075912e-10)	(-6.747454e-07 -4.268374e-06 -1.981162e-09)
0.40875       	(-1.983308e-05 -6.399085e-06 -2.085325e-09)	(-1.912016e-05 -2.178836e-06 -1.123039e-10)	(-7.129252e-07 -4.220250e-06 -1.973021e-09)
0.4125        	(-1.952773e-05 -4.915901e-06 -2.098246e-09)	(-1.877804e-05 -7.471963e-07 -1.103205e-10)	(-7.496855e-07 -4.168705e-06 -1.987926e-09)
0.41625       	(-1.950114e-05 -5.889960e-06 -2.130009e-09)	(-1.871408e-05 -1.773949e-06 -1.091665e-10)	(-7.870565e-07 -4.116010e-06 -2.020842e-09)
0.42          	(-1.855457e-05 -4.985337e-06 -2.108417e-09)	(-1.773335e-05 -9.219811e-07 -1.074045e-10)	(-8.212167e-07 -4.063356e-06 -2.001013e-09)
0.42375       	(-1.889097e-05 -4.806149e-06 -2.058183e-09)	(-1.803742e-05 -7.940684e-07 -1.053696e-10)	(-8.535508e-07 -4.012080e-06 -1.952814e-09)
0.4275        	(-1.878841e-05 -5.245094e-06 -1.982286e-09)	(-1.790427e-05 -1.282545e-06 -1.041024e-10)	(-8.841420e-07 -3.962549e-06 -1.878183e-09)
0.43125       	(-1.888812e-05 -4.473147e-06 -1.895601e-09)	(-1.797290e-05 -5.602551e-07 -1.039207e-10)	(-9.152183e-07 -3.912892e-06 -1.791680e-09)
0.435         	(-1.729835e-05 -4.196400e-06 -1.819379e-09)	(-1.635925e-05 -3.322980e-07 -1.055529e-10)	(-9.391018e-07 -3.864102e-06 -1.713826e-09)
0.43875       	(-1.853548e-05 -4.350135e-06 -1.730586e-09)	(-1.757373e-05 -5.337329e-07 -1.052077e-10)	(-9.617502e-07 -3.816402e-06 -1.625378e-09)
0.4425        	(-1.821275e-05 -4.809424e-06 -1.698495e-09)	(-1.722774e-05 -1.036169e-06 -1.077112e-10)	(-9.850158e-07 -3.773255e-06 -1.590783e-09)
0.44625       	(-1.733514e-05 -4.210232e-06 -1.677354e-09)	(-1.633339e-05 -4.789202e-07 -1.083338e-10)	(-1.001745e-06 -3.731312e-06 -1.569020e-09)
0.45          	(-1.720569e-05 -3.680956e-06 -1.617366e-09)	(-1.618749e-05 4.370102e-09 -1.085938e-10)	(-1.018202e-06 -3.685326e-06 -1.508773e-09)
0.45375       	(-1.738342e-05 -3.692543e-06 -1.561456e-09)	(-1.635092e-05 -5.149209e-08 -1.097230e-10)	(-1.032500e-06 -3.641051e-06 -1.451733e-09)
0.4575        	(-1.707227e-05 -3.940507e-06 -1.538473e-09)	(-1.603154e-05 -3.413797e-07 -1.137945e-10)	(-1.040730e-06 -3.599128e-06 -1.424679e-09)
0.46125       	(-1.661347e-05 -2.656995e-06 -1.482140e-09)	(-1.556200e-05 8.992857e-07 -1.110952e-10)	(-1.051464e-06 -3.556281e-06 -1.371045e-09)
0.465         	(-1.631927e-05 -3.348790e-06 -1.415218e-09)	(-1.525735e-05 1.666650e-07 -1.107360e-10)	(-1.061926e-06 -3.515455e-06 -1.304482e-09)
0.46875       	(-1.668284e-05 -3.281876e-06 -1.337916e-09)	(-1.560957e-05 1.942096e-07 -1.107412e-10)	(-1.073264e-06 -3.476086e-06 -1.227175e-09)
0.4725        	(-1.536302e-05 -2.824035e-06 -1.251658e-09)	(-1.428290e-05 6.122559e-07 -1.118463e-10)	(-1.080124e-06 -3.436291e-06 -1.139812e-09)
0.47625       	(-1.525633e-05 -2.959169e-06 -1.168724e-09)	(-1.417045e-05 4.379393e-07 -1.115855e-10)	(-1.085877e-06 -3.397108e-06 -1.057139e-09)
0.48          	(-1.558134e-05 -2.995700e-06 -1.086666e-09)	(-1.448984e-05 3.641936e-07 -1.120827e-10)	(-1.091500e-06 -3.359894e-06 -9.745829e-10)
0.48375       	(-1.515530e-05 -2.507467e-06 -1.028929e-09)	(-1.406203e-05 8.134820e-07 -1.124043e-10)	(-1.093263e-06 -3.320949e-06 -9.165244e-10)
0.4875        	(-1.476091e-05 -2.432854e-06 -9.677363e-10)	(-1.366660e-05 8.494636e-07 -1.122728e-10)	(-1.094302e-06 -3.282317e-06 -8.554635e-10)
0.49125       	(-1.500057e-05 -2.397146e-06 -8.898067e-10)	(-1.390435e-05 8.479983e-07 -1.125348e-10)	(-1.096224e-06 -3.245144e-06 -7.772719e-10)
0.495         	(-1.381385e-05 -2.370289e-06 -8.253657e-10)	(-1.271751e-05 8.385076e-07 -1.131433e-10)	(-1.096343e-06 -3.208797e-06 -7.122224e-10)
0.49875       	(-1.369483e-05 -2.158313e-06 -7.739282e-10)	(-1.259898e-05 1.013556e-06 -1.124705e-10)	(-1.095852e-06 -3.171870e-06 -6.614577e-10)
0.5025        	(-1.415953e-05 -1.920865e-06 -7.057993e-10)	(-1.306206e-05 1.213771e-06 -1.131129e-10)	(-1.097476e-06 -3.134637e-06 -5.926865e-10)
0.50625       	(-1.321543e-05 -1.390232e-06 -6.252176e-10)	(-1.211753e-05 1.705827e-06 -1.124666e-10)	(-1.097902e-06 -3.096059e-06 -5.127510e-10)
0.51          	(-1.256889e-05 -2.028481e-06 -5.429282e-10)	(-1.147829e-05 1.035580e-06 -1.121391e-10)	(-1.090593e-06 -3.064060e-06 -4.307891e-10)
0.51375       	(-1.302750e-05 -1.702929e-06 -4.750357e-10)	(-1.194208e-05 1.328296e-06 -1.123024e-10)	(-1.085420e-06 -3.031225e-06 -3.627333e-10)
0.5175        	(-1.253060e-05 -1.578390e-06 -4.065267e-10)	(-1.144891e-05 1.417513e-06 -1.137587e-10)	(-1.081693e-06 -2.995903e-06 -2.927680e-10)
0.52125       	(-1.206661e-05 -1.393788e-06 -3.447406e-10)	(-1.099082e-05 1.567072e-06 -1.134678e-10)	(-1.075798e-06 -2.960859e-06 -2.312729e-10)
0.525         	(-1.176512e-05 -1.601676e-06 -2.978231e-10)	(-1.069560e-05 1.324977e-06 -1.144776e-10)	(-1.069520e-06 -2.926653e-06 -1.833455e-10)
0.52875       	(-1.222036e-05 -1.508786e-06 -2.282302e-10)	(-1.115651e-05 1.385641e-06 -1.143611e-10)	(-1.063850e-06 -2.894427e-06 -1.138691e-10)
0.5325        	(-1.192567e-05 -9.511421e-07 -1.526901e-10)	(-1.086926e-05 1.909750e-06 -1.158909e-10)	(-1.056409e-06 -2.860892e-06 -3.679921e-11)
0.53625       	(-1.202286e-05 -1.287866e-06 -7.122768e-11)	(-1.097330e-05 1.540053e-06 -1.163359e-10)	(-1.049563e-06 -2.827919e-06 4.510824e-11)
0.54          	(-1.118870e-05 -9.586613e-07 4.322791e-12)	(-1.014851e-05 1.837122e-06 -1.165772e-10)	(-1.040187e-06 -2.795784e-06 1.209000e-10)
0.54375       	(-1.064188e-05 -1.274185e-06 7.332830e-11)	(-9.613232e-06 1.489334e-06 -1.173005e-10)	(-1.028651e-06 -2.763519e-06 1.906288e-10)
0.5475        	(-1.053009e-05 -7.064142e-07 1.421449e-10)	(-9.513382e-06 2.024613e-06 -1.181818e-10)	(-1.016705e-06 -2.731027e-06 2.603267e-10)
0.55125       	(-1.060252e-05 -8.972041e-07 1.982124e-10)	(-9.597268e-06 1.803456e-06 -1.191554e-10)	(-1.005251e-06 -2.700660e-06 3.173678e-10)
0.555         	(-1.018165e-05 -6.260109e-07 2.439667e-10)	(-9.189764e-06 2.044254e-06 -1.192944e-10)	(-9.918822e-07 -2.670265e-06 3.632611e-10)
0.55875       	(-9.992413e-06 -1.007423e-06 2.992903e-10)	(-9.013502e-06 1.632575e-06 -1.202016e-10)	(-9.789109e-07 -2.639998e-06 4.194919e-10)
0.5625        	(-9.382554e-06 -7.515842e-07 3.463990e-10)	(-8.415247e-06 1.858407e-06 -1.216707e-10)	(-9.673067e-07 -2.609991e-06 4.680697e-10)
0.56625       	(-9.890862e-06 -1.066267e-06 3.913021e-10)	(-8.935230e-06 1.515483e-06 -1.226633e-10)	(-9.556325e-07 -2.581750e-06 5.139654e-10)
0.57          	(-9.030794e-06 -3.075648e-07 4.387997e-10)	(-8.089794e-06 2.245642e-06 -1.234294e-10)	(-9.409992e-07 -2.553207e-06 5.622291e-10)
0.57375       	(-9.022484e-06 -4.456994e-07 4.821866e-10)	(-8.097481e-06 2.080053e-06 -1.245873e-10)	(-9.250030e-07 -2.525752e-06 6.067739e-10)
0.5775        	(-9.045899e-06 -6.452539e-07 5.236923e-10)	(-8.134379e-06 1.854319e-06 -1.255732e-10)	(-9.115200e-07 -2.499573e-06 6.492655e-10)
0.58125       	(-8.079800e-06 -5.644020e-07 5.531660e-10)	(-7.183390e-06 1.908905e-06 -1.279575e-10)	(-8.964103e-07 -2.473307e-06 6.811235e-10)
0.585         	(-9.021786e-06 -4.308313e-07 5.743905e-10)	(-8.137572e-06 2.015557e-06 -1.293242e-10)	(-8.842139e-07 -2.446388e-06 7.037146e-10)
0.58875       	(-8.261919e-06 -3.652291e-07 5.875443e-10)	(-7.388777e-06 2.053855e-06 -1.316024e-10)	(-8.731418e-07 -2.419084e-06 7.191467e-10)
0.5925        	(-7.846583e-06 -1.425112e-07 6.042339e-10)	(-6.984491e-06 2.248351e-06 -1.336940e-10)	(-8.620924e-07 -2.390862e-06 7.379279e-10)
0.59625       	(-7.562119e-06 -2.063173e-07 6.268283e-10)	(-6.708844e-06 2.155928e-06 -1.346562e-10)	(-8.532754e-07 -2.362245e-06 7.614844e-10)
0.6           	(-7.809086e-06 -3.230920e-07 6.663221e-10)	(-6.962508e-06 2.011363e-06 -1.250485e-10)	(-8.465780e-07 -2.334455e-06 7.913705e-10)
0.60375       	(-7.172387e-06 -1.931574e-07 7.069837e-10)	(-6.333374e-06 2.113671e-06 -1.230629e-10)	(-8.390131e-07 -2.306828e-06 8.300466e-10)
0.6075        	(-7.778203e-06 -1.766716e-07 7.259999e-10)	(-6.946760e-06 2.104549e-06 -1.213067e-10)	(-8.314424e-07 -2.281221e-06 8.473067e-10)
0.61125       	(-6.704089e-06 -1.607543e-07 7.320681e-10)	(-5.880547e-06 2.094958e-06 -1.186467e-10)	(-8.235423e-07 -2.255712e-06 8.507148e-10)
0.615         	(-7.415871e-06 -1.687363e-07 7.350997e-10)	(-6.598602e-06 2.061158e-06 -1.169282e-10)	(-8.172696e-07 -2.229895e-06 8.520279e-10)
0.61875       	(-6.368084e-06 -1.352895e-07 7.226552e-10)	(-5.558479e-06 2.069117e-06 -1.147328e-10)	(-8.096045e-07 -2.204406e-06 8.373880e-10)
0.6225        	(-7.323380e-06 -3.800375e-07 7.131797e-10)	(-6.519205e-06 1.799895e-06 -1.120323e-10)	(-8.041757e-07 -2.179933e-06 8.252121e-10)
0.62625       	(-6.310070e-06 -2.321972e-07 7.102436e-10)	(-5.514570e-06 1.923648e-06 -1.091429e-10)	(-7.954995e-07 -2.155845e-06 8.193865e-10)
0.63          	(-7.441334e-06 -2.536558e-07 6.984056e-10)	(-6.651344e-06 1.877577e-06 -9.784733e-11)	(-7.899894e-07 -2.131232e-06 7.962530e-10)
0.63375       	(-5.913098e-06 6.029303e-08 6.861086e-10)	(-5.131447e-06 2.165728e-06 -9.286130e-11)	(-7.816517e-07 -2.105435e-06 7.789699e-10)
0.6375        	(-6.117179e-06 3.236623e-08 6.862264e-10)	(-5.344384e-06 2.112803e-06 -8.741007e-11)	(-7.727951e-07 -2.080437e-06 7.736365e-10)
0.64125       	(-6.084267e-06 -9.565500e-08 6.704152e-10)	(-5.318176e-06 1.960718e-06 -9.286701e-11)	(-7.660908e-07 -2.056373e-06 7.632822e-10)
0.645         	(-6.233955e-06 -7.871617e-08 6.542212e-10)	(-5.475046e-06 1.954071e-06 -9.183469e-11)	(-7.589096e-07 -2.032787e-06 7.460559e-10)
0.64875       	(-5.071154e-06 -3.262852e-08 6.416032e-10)	(-4.321991e-06 1.976536e-06 -9.129646e-11)	(-7.491626e-07 -2.009164e-06 7.328996e-10)
0.6525        	(-5.740822e-06 -9.658751e-08 6.352881e-10)	(-4.999772e-06 1.891274e-06 -8.440162e-11)	(-7.410497e-07 -1.987861e-06 7.196897e-10)
0.65625       	(-5.316017e-06 4.264440e-07 6.105394e-10)	(-4.583320e-06 2.391141e-06 -8.468976e-11)	(-7.326971e-07 -1.964697e-06 6.952291e-10)
0.66          	(-5.426530e-06 -5.782497e-08 5.936418e-10)	(-4.700731e-06 1.884428e-06 -7.974159e-11)	(-7.257994e-07 -1.942253e-06 6.733834e-10)
0.66375       	(-5.575735e-06 -1.659032e-07 5.906338e-10)	(-4.855660e-06 1.755450e-06 -7.803517e-11)	(-7.200751e-07 -1.921353e-06 6.686690e-10)
0.6675        	(-5.335114e-06 -5.627368e-08 6.007045e-10)	(-4.621504e-06 1.843469e-06 -7.610329e-11)	(-7.136102e-07 -1.899743e-06 6.768077e-10)
0.67125       	(-4.789520e-06 1.273773e-07 6.095936e-10)	(-4.083700e-06 2.005133e-06 -7.408388e-11)	(-7.058200e-07 -1.877756e-06 6.836775e-10)
0.675         	(-5.326168e-06 2.472292e-07 6.108986e-10)	(-4.627193e-06 2.103200e-06 -7.187272e-11)	(-6.989754e-07 -1.855970e-06 6.827713e-10)
0.67875       	(-5.025229e-06 1.270209e-08 6.048795e-10)	(-4.331563e-06 1.847409e-06 -6.800772e-11)	(-6.936658e-07 -1.834707e-06 6.728872e-10)
0.6825        	(-4.959244e-06 -4.788673e-09 5.822404e-10)	(-4.271080e-06 1.809078e-06 -6.955589e-11)	(-6.881648e-07 -1.813866e-06 6.517963e-10)
0.68625       	(-4.512979e-06 2.076287e-07 5.610624e-10)	(-3.831438e-06 2.000684e-06 -6.684419e-11)	(-6.815417e-07 -1.793055e-06 6.279066e-10)
0.69          	(-4.565378e-06 4.245164e-07 5.374492e-10)	(-3.890687e-06 2.196172e-06 -6.537291e-11)	(-6.746911e-07 -1.771656e-06 6.028221e-10)
0.69375       	(-4.587399e-06 2.090490e-07 5.134771e-10)	(-3.919136e-06 1.960294e-06 -6.437776e-11)	(-6.682631e-07 -1.751245e-06 5.778548e-10)
0.6975        	(-4.316218e-06 -1.357506e-07 4.963565e-10)	(-3.653498e-06 1.597594e-06 -5.885822e-11)	(-6.627199e-07 -1.733345e-06 5.552148e-10)
0.70125       	(-4.462671e-06 3.018886e-07 4.779481e-10)	(-3.805199e-06 2.016667e-06 -5.336730e-11)	(-6.574721e-07 -1.714778e-06 5.313154e-10)
0.705         	(-3.652873e-06 2.321695e-08 4.515356e-10)	(-3.002896e-06 1.720701e-06 -5.264752e-11)	(-6.499770e-07 -1.697484e-06 5.041831e-10)
0.70875       	(-4.479303e-06 2.206082e-09 4.035031e-10)	(-3.835037e-06 1.681094e-06 -6.121617e-11)	(-6.442665e-07 -1.678888e-06 4.647193e-10)
0.7125        	(-4.009136e-06 1.869027e-07 3.605770e-10)	(-3.369711e-06 1.846007e-06 -6.099446e-11)	(-6.394247e-07 -1.659105e-06 4.215715e-10)
0.71625       	(-4.204452e-06 -8.874307e-08 3.181731e-10)	(-3.569449e-06 1.551629e-06 -6.318064e-11)	(-6.350025e-07 -1.640372e-06 3.813537e-10)
0.72          	(-4.174111e-06 -7.434035e-08 2.764212e-10)	(-3.543554e-06 1.547476e-06 -6.413723e-11)	(-6.305569e-07 -1.621816e-06 3.405584e-10)
0.72375       	(-3.497235e-06 5.636287e-07 2.331377e-10)	(-2.872843e-06 2.165462e-06 -6.493219e-11)	(-6.243920e-07 -1.601833e-06 2.980699e-10)
0.7275        	(-4.142136e-06 -1.894000e-07 1.908307e-10)	(-3.522404e-06 1.393864e-06 -6.391478e-11)	(-6.197313e-07 -1.583264e-06 2.547455e-10)
0.73125       	(-4.103602e-06 -9.251341e-08 1.489798e-10)	(-3.487466e-06 1.473459e-06 -6.385579e-11)	(-6.161369e-07 -1.565972e-06 2.128356e-10)
0.735         	(-3.801996e-06 1.660173e-07 1.068693e-10)	(-3.190246e-06 1.714063e-06 -6.336118e-11)	(-6.117500e-07 -1.548046e-06 1.702305e-10)
0.73875       	(-4.121812e-06 -1.474057e-07 6.726642e-11)	(-3.513540e-06 1.383350e-06 -6.354787e-11)	(-6.082726e-07 -1.530756e-06 1.308143e-10)
0.7425        	(-3.166437e-06 7.410494e-08 2.614386e-11)	(-2.563395e-06 1.587714e-06 -6.285237e-11)	(-6.030425e-07 -1.513609e-06 8.899623e-11)
0.74625       	(-3.685944e-06 1.280134e-07 -2.171750e-11)	(-3.087264e-06 1.624802e-06 -6.807403e-11)	(-5.986800e-07 -1.496789e-06 4.635653e-11)
0.75          	(-3.447726e-06 3.946246e-07 -5.026357e-11)	(-2.853232e-06 1.873806e-06 -5.903825e-11)	(-5.944948e-07 -1.479181e-06 8.774686e-12)
0.75375       	(-3.861366e-06 -2.520849e-07 -9.298757e-11)	(-3.269850e-06 1.210929e-06 -6.393859e-11)	(-5.915158e-07 -1.463014e-06 -2.904897e-11)
0.7575        	(-3.712745e-06 1.061420e-07 -1.271706e-10)	(-3.123682e-06 1.552737e-06 -6.355764e-11)	(-5.890629e-07 -1.446595e-06 -6.361300e-11)
0.76125       	(-3.393940e-06 1.382604e-07 -1.662534e-10)	(-2.808316e-06 1.567837e-06 -6.478386e-11)	(-5.856243e-07 -1.429577e-06 -1.014696e-10)
0.765         	(-3.089266e-06 1.545600e-07 -2.100280e-10)	(-2.508638e-06 1.567695e-06 -6.327981e-11)	(-5.806284e-07 -1.413135e-06 -1.467482e-10)
0.76875       	(-3.848702e-06 2.353905e-07 -2.455646e-10)	(-3.269918e-06 1.631635e-06 -6.235239e-11)	(-5.787843e-07 -1.396245e-06 -1.832122e-10)
0.7725        	(-3.261405e-06 6.651654e-08 -2.756999e-10)	(-2.685752e-06 1.447000e-06 -5.958362e-11)	(-5.756529e-07 -1.380483e-06 -2.161163e-10)