# Force       
# CofR        : (0.000000e+00 0.000000e+00 0.000000e+00)
#
# Time        	total_x total_y total_z	pressure_x pressure_y pressure_z	viscous_x viscous_y viscous_z
0.0075         1.690521e-06 -4.317443e-05 5.461239e+01 3.012814e-06 -4.396747e-05 5.303644e+01 -1.322293e-06 7.930383e-07 1.575952e+00
0.015          1.567646e-05 6.673317e-05 -5.914990e+00 1.487823e-05 7.584432e-05 -6.634376e+00 7.982293e-07 -9.111153e-06 7.193861e-01
0.0225         -2.825015e-05 -1.448844e-04 -3.562807e+00 -2.877014e-05 -1.418767e-04 -4.064722e+00 5.199881e-07 -3.007669e-06 5.019148e-01
0.03           -2.249873e-05 -9.488053e-06 8.453824e-01 -2.187122e-05 -1.604662e-05 4.734338e-01 -6.275112e-07 6.558569e-06 3.719486e-01
0.0375         -7.768232e-06 7.723330e-06 1.138205e+00 -7.281128e-06 -2.289090e-07 8.119497e-01 -4.871040e-07 7.952239e-06 3.262552e-01
0.045          -2.869656e-06 1.122998e-05 1.164779e+00 -2.745116e-06 4.304718e-06 8.615329e-01 -1.245398e-07 6.925257e-06 3.032466e-01
0.0525         -1.075690e-06 1.096603e-05 1.173376e+00 -1.136022e-06 5.131522e-06 8.893055e-01 6.033134e-08 5.834512e-06 2.840701e-01
0.06           -8.963281e-07 8.546760e-06 1.159391e+00 -1.010548e-06 3.645808e-06 8.914110e-01 1.142202e-07 4.900952e-06 2.679805e-01
0.0675         -5.464292e-08 8.261588e-06 1.136256e+00 -1.790367e-07 4.086524e-06 8.816807e-01 1.243938e-07 4.175065e-06 2.545757e-01
0.075          4.498061e-07 7.608812e-06 1.110448e+00 3.255514e-07 3.994044e-06 8.671838e-01 1.242547e-07 3.614768e-06 2.432641e-01
0.0825         5.660510e-07 7.242293e-06 1.085815e+00 4.521933e-07 4.081950e-06 8.522495e-01 1.138577e-07 3.160343e-06 2.335655e-01
0.09           5.525048e-07 6.665859e-06 1.062561e+00 4.571031e-07 3.899022e-06 8.374218e-01 9.540178e-08 2.766837e-06 2.251395e-01
0.0975         5.714508e-07 6.058642e-06 1.041229e+00 4.957092e-07 3.640324e-06 8.234889e-01 7.574154e-08 2.418318e-06 2.177402e-01
0.105          5.517317e-07 5.531302e-06 1.021776e+00 4.951635e-07 3.418909e-06 8.105968e-01 5.656821e-08 2.112393e-06 2.111790e-01
0.1125         4.652178e-07 4.908761e-06 1.004216e+00 4.278450e-07 3.076480e-06 7.989044e-01 3.737276e-08 1.832281e-06 2.053116e-01
0.12           4.267769e-07 4.600760e-06 9.882527e-01 4.053935e-07 3.008439e-06 7.882282e-01 2.138340e-08 1.592321e-06 2.000245e-01
0.1275         7.460927e-08 4.511310e-06 9.739334e-01 6.791881e-08 3.121124e-06 7.787023e-01 6.690455e-09 1.390185e-06 1.952311e-01
0.135          8.596081e-08 3.994792e-06 9.608301e-01 9.065404e-08 2.812998e-06 7.699779e-01 -4.693234e-09 1.181794e-06 1.908522e-01
0.1425         6.284106e-08 3.627562e-06 9.490275e-01 7.498440e-08 2.646659e-06 7.621939e-01 -1.214334e-08 9.809023e-07 1.868336e-01
0.15           4.186626e-08 3.045348e-06 9.382197e-01 6.070933e-08 2.259941e-06 7.550884e-01 -1.884307e-08 7.854068e-07 1.831314e-01
0.1575         5.081626e-08 3.696723e-06 9.282369e-01 7.333503e-08 3.019572e-06 7.485375e-01 -2.251877e-08 6.771508e-07 1.796994e-01
0.165          4.419534e-08 2.842933e-06 9.192426e-01 6.968620e-08 2.292365e-06 7.427345e-01 -2.549086e-08 5.505685e-07 1.765081e-01
0.1725         2.630343e-08 2.665847e-06 9.108620e-01 5.496413e-08 2.255869e-06 7.373259e-01 -2.866070e-08 4.099781e-07 1.735361e-01
0.18           2.891672e-08 2.449450e-06 9.031227e-01 6.036928e-08 2.162422e-06 7.323643e-01 -3.145256e-08 2.870282e-07 1.707583e-01
0.1875         2.816194e-08 2.234434e-06 8.960891e-01 6.177141e-08 2.060736e-06 7.279408e-01 -3.360947e-08 1.736975e-07 1.681483e-01
0.195          2.648813e-08 2.130468e-06 8.894468e-01 6.182933e-08 2.049595e-06 7.237570e-01 -3.534120e-08 8.087359e-08 1.656898e-01
0.2025         2.256615e-08 1.940800e-06 8.832012e-01 5.930950e-08 1.944337e-06 7.198290e-01 -3.674335e-08 -3.537084e-09 1.633722e-01
0.21           2.326226e-08 1.677161e-06 8.774402e-01 6.148704e-08 1.773956e-06 7.162559e-01 -3.822478e-08 -9.679469e-08 1.611843e-01
0.2175         1.542216e-08 1.864653e-06 8.718995e-01 5.438120e-08 2.015560e-06 7.127883e-01 -3.895904e-08 -1.509066e-07 1.591111e-01
0.225          1.351605e-08 1.605760e-06 8.667026e-01 5.301844e-08 1.812300e-06 7.095561e-01 -3.950240e-08 -2.065403e-07 1.571464e-01
0.2325         1.895646e-08 1.391623e-06 8.620136e-01 5.884530e-08 1.673128e-06 7.067324e-01 -3.988885e-08 -2.815054e-07 1.552812e-01
0.24           1.663176e-08 1.310834e-06 8.576346e-01 5.658523e-08 1.658674e-06 7.041288e-01 -3.995347e-08 -3.478402e-07 1.535058e-01
0.2475         1.843767e-08 1.181744e-06 8.535101e-01 5.849403e-08 1.586982e-06 7.016968e-01 -4.005636e-08 -4.052378e-07 1.518133e-01
0.255          1.656009e-08 1.187098e-06 8.495164e-01 5.608057e-08 1.635640e-06 6.993164e-01 -3.952048e-08 -4.485416e-07 1.502000e-01
0.2625         2.779455e-08 1.098571e-06 8.455917e-01 6.711517e-08 1.586984e-06 6.969369e-01 -3.932062e-08 -4.884135e-07 1.486548e-01
0.27           2.566120e-08 9.701861e-07 8.419486e-01 6.465536e-08 1.501141e-06 6.947731e-01 -3.899415e-08 -5.309545e-07 1.471755e-01
0.2775         1.987614e-08 8.818542e-07 8.384753e-01 5.860049e-08 1.455161e-06 6.927159e-01 -3.872434e-08 -5.733067e-07 1.457594e-01
0.285          2.555053e-08 8.637274e-07 8.351807e-01 6.396865e-08 1.469803e-06 6.907802e-01 -3.841812e-08 -6.060759e-07 1.444005e-01
0.2925         2.909665e-08 7.854907e-07 8.319776e-01 6.696795e-08 1.422206e-06 6.888825e-01 -3.787131e-08 -6.367158e-07 1.430951e-01
0.3            2.775125e-08 7.726996e-07 8.289419e-01 6.508830e-08 1.433974e-06 6.871016e-01 -3.733704e-08 -6.612741e-07 1.418403e-01
0.3075         2.811608e-08 6.632577e-07 8.261316e-01 6.451433e-08 1.352101e-06 6.854991e-01 -3.639826e-08 -6.888432e-07 1.406325e-01
0.315          3.338389e-08 6.419164e-07 8.234092e-01 6.894237e-08 1.355720e-06 6.839396e-01 -3.555848e-08 -7.138032e-07 1.394695e-01
0.3225         3.848869e-08 5.443434e-07 8.207142e-01 7.307918e-08 1.284552e-06 6.823656e-01 -3.459049e-08 -7.402082e-07 1.383486e-01
0.33           3.273288e-08 5.651960e-07 8.180998e-01 6.651896e-08 1.323847e-06 6.808344e-01 -3.378609e-08 -7.586512e-07 1.372654e-01
0.3375         3.325068e-08 5.131446e-07 8.156166e-01 6.654785e-08 1.284119e-06 6.793975e-01 -3.329717e-08 -7.709740e-07 1.362190e-01
0.345          4.032797e-08 4.984896e-07 8.132203e-01 7.222886e-08 1.265193e-06 6.780118e-01 -3.190088e-08 -7.667032e-07 1.352086e-01
0.3525         3.899631e-08 5.195912e-07 8.108825e-01 7.022170e-08 1.311765e-06 6.766515e-01 -3.122539e-08 -7.921734e-07 1.342310e-01
0.36           4.425043e-08 4.210061e-07 8.086450e-01 7.497273e-08 1.249480e-06 6.753602e-01 -3.072230e-08 -8.284741e-07 1.332849e-01
0.3675         4.670211e-08 3.793120e-07 8.064271e-01 7.608903e-08 1.219005e-06 6.740582e-01 -2.938693e-08 -8.396932e-07 1.323688e-01
0.375          4.480314e-08 3.800024e-07 8.043745e-01 7.297686e-08 1.225759e-06 6.728930e-01 -2.817372e-08 -8.457563e-07 1.314815e-01
0.3825         4.773470e-08 3.552970e-07 8.023161e-01 7.507079e-08 1.211033e-06 6.716958e-01 -2.733609e-08 -8.557363e-07 1.306203e-01
0.39           4.972007e-08 3.411127e-07 8.003018e-01 7.608706e-08 1.204721e-06 6.705175e-01 -2.636699e-08 -8.636085e-07 1.297843e-01
0.3975         5.257184e-08 3.114578e-07 7.983723e-01 7.780049e-08 1.183747e-06 6.693992e-01 -2.522866e-08 -8.722893e-07 1.289731e-01
0.405          5.346140e-08 3.621800e-07 7.964943e-01 7.756704e-08 1.235591e-06 6.683090e-01 -2.410564e-08 -8.734113e-07 1.281854e-01
0.4125         5.424682e-08 2.500897e-07 7.946867e-01 7.751047e-08 1.133755e-06 6.672664e-01 -2.326366e-08 -8.836650e-07 1.274203e-01
0.42           5.533222e-08 2.718684e-07 7.927851e-01 7.740845e-08 1.162230e-06 6.661107e-01 -2.207623e-08 -8.903620e-07 1.266744e-01
0.4275         5.951537e-08 2.456038e-07 7.909485e-01 8.057355e-08 1.142392e-06 6.650014e-01 -2.105818e-08 -8.967881e-07 1.259471e-01
0.435          5.955910e-08 2.535794e-07 7.893152e-01 7.965152e-08 1.154392e-06 6.640733e-01 -2.009243e-08 -9.008125e-07 1.252420e-01
0.4425         6.468701e-08 2.814900e-07 7.875279e-01 8.353865e-08 1.180262e-06 6.629742e-01 -1.885164e-08 -8.987715e-07 1.245538e-01
0.45           6.262883e-08 2.116153e-07 7.859199e-01 8.068016e-08 1.114566e-06 6.620373e-01 -1.805133e-08 -9.029503e-07 1.238825e-01
0.4575         6.635228e-08 2.423376e-07 7.842971e-01 8.326297e-08 1.147151e-06 6.610685e-01 -1.691069e-08 -9.048137e-07 1.232286e-01
0.465          6.943855e-08 1.983571e-07 7.827115e-01 8.504494e-08 1.106927e-06 6.601211e-01 -1.560640e-08 -9.085702e-07 1.225905e-01
0.4725         6.553101e-08 2.273927e-07 7.811629e-01 8.038850e-08 1.136028e-06 6.591955e-01 -1.485749e-08 -9.086350e-07 1.219674e-01
0.48           7.218579e-08 2.054616e-07 7.796521e-01 8.600476e-08 1.114910e-06 6.582944e-01 -1.381897e-08 -9.094489e-07 1.213577e-01
0.4875         7.096568e-08 1.879746e-07 7.781251e-01 8.369631e-08 1.100231e-06 6.573649e-01 -1.273063e-08 -9.122561e-07 1.207602e-01
0.495          7.150081e-08 2.167133e-07 7.765965e-01 8.322457e-08 1.125618e-06 6.564159e-01 -1.172375e-08 -9.089044e-07 1.201806e-01
0.5025         7.549108e-08 1.791524e-07 7.751208e-01 8.610771e-08 1.088293e-06 6.555020e-01 -1.061664e-08 -9.091407e-07 1.196187e-01
0.51           7.638687e-08 1.640869e-07 7.736709e-01 8.601699e-08 1.075985e-06 6.546000e-01 -9.630122e-09 -9.118985e-07 1.190710e-01
0.5175         7.515391e-08 1.891277e-07 7.721945e-01 8.381990e-08 1.098288e-06 6.536547e-01 -8.665986e-09 -9.091598e-07 1.185398e-01
0.525          8.002408e-08 2.134613e-07 7.708103e-01 8.750616e-08 1.116415e-06 6.527873e-01 -7.482081e-09 -9.029538e-07 1.180230e-01
0.5325         8.009600e-08 1.098697e-07 7.694258e-01 8.660890e-08 1.019394e-06 6.519098e-01 -6.512895e-09 -9.095242e-07 1.175160e-01
0.54           8.425133e-08 1.729930e-07 7.680591e-01 8.958355e-08 1.082697e-06 6.510390e-01 -5.332221e-09 -9.097042e-07 1.170201e-01
0.5475         8.429678e-08 2.361404e-07 7.667160e-01 8.861500e-08 1.134610e-06 6.501808e-01 -4.318222e-09 -8.984692e-07 1.165352e-01
0.555          8.326258e-08 2.086365e-07 7.654082e-01 8.676842e-08 1.099817e-06 6.493486e-01 -3.505839e-09 -8.911805e-07 1.160596e-01
0.5625         8.692014e-08 1.348620e-07 7.640698e-01 8.938900e-08 1.029828e-06 6.484771e-01 -2.468857e-09 -8.949663e-07 1.155927e-01
0.57           8.797128e-08 2.267657e-07 7.627827e-01 8.966767e-08 1.115701e-06 6.476472e-01 -1.696391e-09 -8.889356e-07 1.151355e-01
0.5775         8.977722e-08 1.785494e-07 7.615210e-01 9.052386e-08 1.062797e-06 6.468332e-01 -7.466345e-10 -8.842478e-07 1.146878e-01
0.585          9.023417e-08 1.891815e-07 7.602634e-01 9.006995e-08 1.071598e-06 6.460145e-01 1.642201e-10 -8.824161e-07 1.142489e-01
0.5925         9.213100e-08 2.526319e-07 7.590249e-01 9.096896e-08 1.125091e-06 6.452060e-01 1.162045e-09 -8.724587e-07 1.138188e-01
0.6            9.183559e-08 1.746158e-07 7.577657e-01 8.989177e-08 1.045629e-06 6.443689e-01 1.943819e-09 -8.710136e-07 1.133968e-01
0.6075         9.553534e-08 2.154177e-07 7.565747e-01 9.254792e-08 1.081835e-06 6.435914e-01 2.987425e-09 -8.664168e-07 1.129833e-01
0.615          9.436712e-08 1.725741e-07 7.553403e-01 9.037021e-08 1.035544e-06 6.427633e-01 3.996913e-09 -8.629702e-07 1.125770e-01
0.6225         9.734677e-08 2.439728e-07 7.541345e-01 9.258566e-08 1.100999e-06 6.419570e-01 4.761105e-09 -8.570264e-07 1.121775e-01
0.63           9.505091e-08 1.843730e-07 7.529686e-01 8.981398e-08 1.039685e-06 6.411829e-01 5.236930e-09 -8.553122e-07 1.117857e-01
0.6375         9.810717e-08 2.032669e-07 7.517998e-01 9.204613e-08 1.056173e-06 6.403982e-01 6.061032e-09 -8.529057e-07 1.114016e-01
0.645          9.923421e-08 2.326397e-07 7.506385e-01 9.233280e-08 1.078354e-06 6.396141e-01 6.901415e-09 -8.457140e-07 1.110245e-01
0.6525         1.002310e-07 2.270061e-07 7.494974e-01 9.247510e-08 1.065973e-06 6.388432e-01 7.755860e-09 -8.389668e-07 1.106542e-01
0.66           1.016288e-07 2.196629e-07 7.483615e-01 9.310853e-08 1.054751e-06 6.380707e-01 8.520278e-09 -8.350881e-07 1.102908e-01
0.6675         1.021000e-07 2.798940e-07 7.472392e-01 9.286509e-08 1.104367e-06 6.373052e-01 9.234910e-09 -8.244730e-07 1.099340e-01
0.675          1.029880e-07 2.236229e-07 7.461297e-01 9.307920e-08 1.043757e-06 6.365461e-01 9.908782e-09 -8.201338e-07 1.095836e-01
0.6825         1.731899e-07 1.848366e-07 7.411718e-01 1.601657e-07 9.625410e-07 6.318566e-01 1.302421e-08 -7.777045e-07 1.093152e-01
0.69           1.543474e-07 2.257833e-07 7.404298e-01 1.391052e-07 9.515881e-07 6.313583e-01 1.524221e-08 -7.258048e-07 1.090714e-01
0.6975         1.562851e-07 2.573350e-07 7.395701e-01 1.400896e-07 9.457698e-07 6.307540e-01 1.619546e-08 -6.884349e-07 1.088161e-01
0.705          1.573420e-07 3.511601e-07 7.387245e-01 1.403052e-07 1.002625e-06 6.301668e-01 1.703676e-08 -6.514646e-07 1.085577e-01
0.7125         1.567318e-07 3.225266e-07 7.378736e-01 1.391012e-07 9.472316e-07 6.295748e-01 1.763058e-08 -6.247051e-07 1.082988e-01
0.72           1.582497e-07 4.808521e-07 7.369918e-01 1.399222e-07 1.070041e-06 6.289520e-01 1.832750e-08 -5.891885e-07 1.080398e-01
0.7275         1.579064e-07 5.049572e-07 7.361268e-01 1.390426e-07 1.059108e-06 6.283453e-01 1.886379e-08 -5.541511e-07 1.077815e-01
0.735          1.569565e-07 5.168411e-07 7.352694e-01 1.377945e-07 1.043930e-06 6.277445e-01 1.916200e-08 -5.270893e-07 1.075249e-01
0.7425         1.563533e-07 5.627324e-07 7.344076e-01 1.369529e-07 1.064547e-06 6.271376e-01 1.940041e-08 -5.018146e-07 1.072700e-01
0.75           1.575250e-07 6.246928e-07 7.335540e-01 1.377235e-07 1.097922e-06 6.265366e-01 1.980142e-08 -4.732290e-07 1.070174e-01
0.7575         1.563837e-07 6.458076e-07 7.327068e-01 1.363134e-07 1.093165e-06 6.259396e-01 2.007034e-08 -4.473575e-07 1.067672e-01
0.765          1.561499e-07 7.203508e-07 7.318433e-01 1.359001e-07 1.138981e-06 6.253243e-01 2.024983e-08 -4.186298e-07 1.065190e-01
0.7725         1.581284e-07 7.620114e-07 7.309841e-01 1.374535e-07 1.151598e-06 6.247112e-01 2.067492e-08 -3.895868e-07 1.062730e-01
0.78           1.562166e-07 7.442969e-07 7.301377e-01 1.352664e-07 1.113292e-06 6.241083e-01 2.095023e-08 -3.689955e-07 1.060294e-01
0.7875         1.553896e-07 8.131596e-07 7.292959e-01 1.343441e-07 1.159105e-06 6.235074e-01 2.104546e-08 -3.459450e-07 1.057884e-01
0.795          1.545748e-07 8.523849e-07 7.284576e-01 1.334357e-07 1.172634e-06 6.229075e-01 2.113911e-08 -3.202492e-07 1.055501e-01
0.8025         1.546948e-07 8.919482e-07 7.276252e-01 1.334087e-07 1.187167e-06 6.223110e-01 2.128607e-08 -2.952192e-07 1.053143e-01
0.81           1.528732e-07 9.202905e-07 7.267914e-01 1.315863e-07 1.192051e-06 6.217105e-01 2.128692e-08 -2.717604e-07 1.050809e-01
0.8175         1.554810e-07 9.966537e-07 7.259818e-01 1.338663e-07 1.240369e-06 6.211313e-01 2.161474e-08 -2.437149e-07 1.048504e-01
0.825          1.529819e-07 9.712149e-07 7.251358e-01 1.311859e-07 1.193988e-06 6.205138e-01 2.179601e-08 -2.227735e-07 1.046220e-01
0.8325         1.513355e-07 1.012058e-06 7.243106e-01 1.296700e-07 1.216371e-06 6.199147e-01 2.166549e-08 -2.043137e-07 1.043959e-01
0.84           1.520006e-07 1.047299e-06 7.234896e-01 1.302837e-07 1.230644e-06 6.193172e-01 2.171693e-08 -1.833446e-07 1.041724e-01
0.8475         1.510311e-07 1.126686e-06 7.226802e-01 1.292317e-07 1.283288e-06 6.187287e-01 2.179945e-08 -1.566022e-07 1.039515e-01
0.855          1.502922e-07 1.071693e-06 7.218801e-01 1.284514e-07 1.211466e-06 6.181467e-01 2.184078e-08 -1.397727e-07 1.037334e-01
0.8625         1.502117e-07 1.152511e-06 7.210645e-01 1.282485e-07 1.272426e-06 6.175468e-01 2.196321e-08 -1.199148e-07 1.035177e-01
0.87           1.495003e-07 1.173030e-06 7.202561e-01 1.274415e-07 1.271064e-06 6.169518e-01 2.205882e-08 -9.803366e-08 1.033043e-01
0.8775         1.480519e-07 1.207385e-06 7.194702e-01 1.260271e-07 1.284581e-06 6.163767e-01 2.202480e-08 -7.719605e-08 1.030935e-01
0.885          1.484084e-07 1.239066e-06 7.186767e-01 1.263214e-07 1.295314e-06 6.157914e-01 2.208695e-08 -5.624761e-08 1.028853e-01
0.8925         1.470460e-07 1.265796e-06 7.178896e-01 1.249240e-07 1.301347e-06 6.152102e-01 2.212204e-08 -3.555021e-08 1.026794e-01
0.9            1.468603e-07 1.309630e-06 7.171106e-01 1.246706e-07 1.323059e-06 6.146346e-01 2.218980e-08 -1.342892e-08 1.024760e-01
0.9075         1.466989e-07 1.299622e-06 7.163326e-01 1.243804e-07 1.295866e-06 6.140577e-01 2.231853e-08 3.755660e-09 1.022748e-01
0.915          1.464849e-07 1.339377e-06 7.155404e-01 1.240188e-07 1.317883e-06 6.134648e-01 2.246609e-08 2.149379e-08 1.020757e-01
0.9225         1.444753e-07 1.331311e-06 7.147619e-01 1.221116e-07 1.295713e-06 6.128833e-01 2.236369e-08 3.559811e-08 1.018786e-01
0.93           1.439111e-07 1.409115e-06 7.140051e-01 1.215641e-07 1.352796e-06 6.123210e-01 2.234703e-08 5.631950e-08 1.016841e-01
0.9375         1.442033e-07 1.422731e-06 7.132443e-01 1.217470e-07 1.345313e-06 6.117524e-01 2.245626e-08 7.741824e-08 1.014919e-01
0.945          1.436070e-07 1.458735e-06 7.124874e-01 1.210011e-07 1.361017e-06 6.111855e-01 2.260583e-08 9.771744e-08 1.013018e-01
0.9525         1.403326e-07 1.452743e-06 7.117461e-01 1.179359e-07 1.339166e-06 6.106319e-01 2.239676e-08 1.135769e-07 1.011142e-01
0.96           1.415961e-07 1.456981e-06 7.110019e-01 1.192011e-07 1.330343e-06 6.100731e-01 2.239503e-08 1.266385e-07 1.009288e-01
0.9675         1.410195e-07 1.501957e-06 7.102405e-01 1.185306e-07 1.358829e-06 6.094955e-01 2.248891e-08 1.431279e-07 1.007450e-01
0.975          1.412470e-07 1.529819e-06 7.095038e-01 1.185737e-07 1.368400e-06 6.089405e-01 2.267327e-08 1.614190e-07 1.005633e-01
0.9825         1.396777e-07 1.573707e-06 7.087705e-01 1.169146e-07 1.392077e-06 6.083868e-01 2.276310e-08 1.816300e-07 1.003837e-01
0.99           1.393666e-07 1.569811e-06 7.080348e-01 1.165682e-07 1.371481e-06 6.078288e-01 2.279839e-08 1.983306e-07 1.002060e-01
0.9975         1.384202e-07 1.602576e-06 7.073104e-01 1.155926e-07 1.387991e-06 6.072801e-01 2.282761e-08 2.145849e-07 1.000303e-01
1.005          1.373639e-07 1.581208e-06 7.065959e-01 1.145366e-07 1.354229e-06 6.067393e-01 2.282733e-08 2.269797e-07 9.985659e-02
1.0125         1.379647e-07 1.660665e-06 7.058874e-01 1.150070e-07 1.415336e-06 6.062025e-01 2.295767e-08 2.453290e-07 9.968495e-02
1.02           1.357980e-07 1.642467e-06 7.051595e-01 1.128487e-07 1.381573e-06 6.056446e-01 2.294930e-08 2.608940e-07 9.951490e-02
1.0275         1.361244e-07 1.650782e-06 7.044527e-01 1.131363e-07 1.377702e-06 6.051060e-01 2.298805e-08 2.730807e-07 9.934665e-02
1.035          1.354410e-07 1.694042e-06 7.037389e-01 1.123742e-07 1.405309e-06 6.045588e-01 2.306679e-08 2.887323e-07 9.918016e-02
1.0425         1.346477e-07 1.704604e-06 7.030377e-01 1.115452e-07 1.400162e-06 6.040223e-01 2.310252e-08 3.044423e-07 9.901539e-02
1.05           1.344291e-07 1.745160e-06 7.023458e-01 1.112470e-07 1.423528e-06 6.034933e-01 2.318211e-08 3.216316e-07 9.885246e-02
1.0575         1.331028e-07 1.740332e-06 7.016542e-01 1.098954e-07 1.404271e-06 6.029629e-01 2.320738e-08 3.360604e-07 9.869134e-02
1.065          1.330728e-07 1.757105e-06 7.009769e-01 1.098040e-07 1.408039e-06 6.024447e-01 2.326884e-08 3.490660e-07 9.853218e-02
1.0725         1.332485e-07 1.783488e-06 7.002715e-01 1.098162e-07 1.419787e-06 6.018971e-01 2.343233e-08 3.637002e-07 9.837440e-02
1.08           1.314292e-07 1.788871e-06 6.995920e-01 1.079723e-07 1.411731e-06 6.013738e-01 2.345688e-08 3.771399e-07 9.821819e-02
1.0875         1.317747e-07 1.828421e-06 6.989153e-01 1.082354e-07 1.435911e-06 6.008515e-01 2.353935e-08 3.925093e-07 9.806373e-02
1.095          1.312578e-07 1.829509e-06 6.982451e-01 1.075785e-07 1.422721e-06 6.003342e-01 2.367931e-08 4.067883e-07 9.791091e-02
1.1025         1.306295e-07 1.870914e-06 6.975764e-01 1.068478e-07 1.448136e-06 5.998167e-01 2.378175e-08 4.227772e-07 9.775963e-02
1.11           1.294531e-07 1.860350e-06 6.969115e-01 1.056487e-07 1.424521e-06 5.993016e-01 2.380446e-08 4.358281e-07 9.760993e-02
1.1175         1.291699e-07 1.894396e-06 6.962525e-01 1.053123e-07 1.444897e-06 5.987907e-01 2.385763e-08 4.494994e-07 9.746179e-02
1.125          1.282045e-07 1.888293e-06 6.956069e-01 1.043256e-07 1.426701e-06 5.982916e-01 2.387885e-08 4.615920e-07 9.731531e-02
1.1325         1.285739e-07 1.908151e-06 6.949379e-01 1.045887e-07 1.434698e-06 5.977678e-01 2.398518e-08 4.734534e-07 9.717006e-02
1.14           1.296056e-07 1.896015e-06 6.942788e-01 1.053004e-07 1.416973e-06 5.972536e-01 2.430522e-08 4.790419e-07 9.702528e-02
1.1475         1.307470e-07 1.903314e-06 6.936346e-01 1.057548e-07 1.414935e-06 5.967534e-01 2.499223e-08 4.883782e-07 9.688123e-02
1.155          1.313367e-07 1.896130e-06 6.929931e-01 1.056067e-07 1.396233e-06 5.962542e-01 2.572998e-08 4.998979e-07 9.673898e-02
1.1625         1.322548e-07 1.912840e-06 6.923505e-01 1.058220e-07 1.400526e-06 5.957519e-01 2.643277e-08 5.123147e-07 9.659857e-02
1.17           1.333163e-07 1.912854e-06 6.917220e-01 1.061664e-07 1.388323e-06 5.952622e-01 2.714993e-08 5.245304e-07 9.645983e-02
1.1775         1.341474e-07 1.937398e-06 6.910862e-01 1.062650e-07 1.398816e-06 5.947636e-01 2.788241e-08 5.385824e-07 9.632255e-02
1.185          1.342542e-07 1.910032e-06 6.904580e-01 1.057394e-07 1.361252e-06 5.942713e-01 2.851485e-08 5.487796e-07 9.618665e-02
1.1925         1.342378e-07 1.933254e-06 6.898442e-01 1.051929e-07 1.373723e-06 5.937919e-01 2.904486e-08 5.595315e-07 9.605232e-02
1.2            1.356859e-07 1.946974e-06 6.892171e-01 1.060115e-07 1.374655e-06 5.932979e-01 2.967434e-08 5.723191e-07 9.591926e-02
1.2075         1.370156e-07 1.954375e-06 6.885995e-01 1.066171e-07 1.369577e-06 5.928120e-01 3.039846e-08 5.847985e-07 9.578751e-02
1.215          1.377107e-07 1.969278e-06 6.879844e-01 1.066026e-07 1.371816e-06 5.923272e-01 3.110813e-08 5.974624e-07 9.565717e-02
1.2225         1.374740e-07 1.980641e-06 6.873784e-01 1.057890e-07 1.370609e-06 5.918502e-01 3.168504e-08 6.100325e-07 9.552818e-02
1.23           1.393277e-07 1.992956e-06 6.867784e-01 1.069573e-07 1.370088e-06 5.913780e-01 3.237043e-08 6.228672e-07 9.540048e-02
1.2375         1.385549e-07 1.983783e-06 6.861816e-01 1.056357e-07 1.350669e-06 5.909075e-01 3.291922e-08 6.331134e-07 9.527407e-02
1.245          1.414843e-07 2.031554e-06 6.855841e-01 1.078144e-07 1.384182e-06 5.904353e-01 3.366990e-08 6.473715e-07 9.514884e-02
1.2525         1.410975e-07 2.003034e-06 6.849787e-01 1.067552e-07 1.345216e-06 5.899540e-01 3.434232e-08 6.578190e-07 9.502462e-02
1.26           1.412041e-07 2.021117e-06 6.843937e-01 1.063324e-07 1.353724e-06 5.894920e-01 3.487168e-08 6.673937e-07 9.490166e-02
1.2675         1.417807e-07 2.019766e-06 6.838076e-01 1.063783e-07 1.342732e-06 5.890275e-01 3.540241e-08 6.770337e-07 9.478014e-02
1.275          1.434682e-07 2.030771e-06 6.832272e-01 1.074098e-07 1.344016e-06 5.885673e-01 3.605844e-08 6.867550e-07 9.465985e-02
1.2825         1.430030e-07 2.044265e-06 6.826438e-01 1.063765e-07 1.346843e-06 5.881032e-01 3.662647e-08 6.974216e-07 9.454062e-02
1.29           1.440882e-07 2.059907e-06 6.820649e-01 1.069104e-07 1.351007e-06 5.876424e-01 3.717779e-08 7.089007e-07 9.442244e-02
1.2975         1.448669e-07 2.059017e-06 6.814958e-01 1.070865e-07 1.340068e-06 5.871904e-01 3.778044e-08 7.189488e-07 9.430538e-02
1.305          1.449480e-07 2.057879e-06 6.809249e-01 1.066323e-07 1.330547e-06 5.867355e-01 3.831570e-08 7.273321e-07 9.418940e-02
1.3125         1.459919e-07 2.085580e-06 6.803649e-01 1.070982e-07 1.347392e-06 5.862904e-01 3.889372e-08 7.381881e-07 9.407455e-02
1.32           1.461764e-07 2.078107e-06 6.797930e-01 1.067454e-07 1.330449e-06 5.858323e-01 3.943109e-08 7.476575e-07 9.396063e-02
1.3275         1.464408e-07 2.081552e-06 6.792332e-01 1.065260e-07 1.325780e-06 5.853855e-01 3.991473e-08 7.557715e-07 9.384769e-02
1.335          1.480562e-07 2.077622e-06 6.786786e-01 1.075359e-07 1.314727e-06 5.849427e-01 4.052023e-08 7.628947e-07 9.373583e-02
1.3425         1.473519e-07 2.098182e-06 6.781282e-01 1.063281e-07 1.326477e-06 5.845031e-01 4.102372e-08 7.717051e-07 9.362502e-02
1.35           1.488745e-07 2.112898e-06 6.775772e-01 1.074475e-07 1.331969e-06 5.840620e-01 4.142701e-08 7.809290e-07 9.351519e-02
1.3575         1.489344e-07 2.102398e-06 6.770333e-01 1.070320e-07 1.314021e-06 5.836270e-01 4.190244e-08 7.883771e-07 9.340634e-02
1.365          1.500003e-07 2.112073e-06 6.764874e-01 1.076808e-07 1.317619e-06 5.831889e-01 4.231953e-08 7.944536e-07 9.329843e-02
1.3725         1.515931e-07 2.116461e-06 6.759462e-01 1.088503e-07 1.316002e-06 5.827548e-01 4.274275e-08 8.004583e-07 9.319140e-02
1.38           1.496983e-07 2.127333e-06 6.754176e-01 1.067293e-07 1.320365e-06 5.823322e-01 4.296894e-08 8.069674e-07 9.308542e-02
1.3875         1.517953e-07 2.137948e-06 6.748812e-01 1.083551e-07 1.322563e-06 5.819008e-01 4.344022e-08 8.153857e-07 9.298042e-02
1.395          1.516004e-07 2.134344e-06 6.743439e-01 1.077821e-07 1.313145e-06 5.814677e-01 4.381829e-08 8.211992e-07 9.287621e-02
1.4025         1.514613e-07 2.133796e-06 6.738152e-01 1.073127e-07 1.306884e-06 5.810423e-01 4.414860e-08 8.269126e-07 9.277286e-02
1.41           1.524813e-07 2.131932e-06 6.732961e-01 1.079094e-07 1.299345e-06 5.806256e-01 4.457191e-08 8.325867e-07 9.267047e-02
1.4175         1.532863e-07 2.144451e-06 6.727723e-01 1.082204e-07 1.305270e-06 5.802033e-01 4.506587e-08 8.391804e-07 9.256896e-02
1.425          1.532914e-07 2.151381e-06 6.722547e-01 1.077896e-07 1.304966e-06 5.797864e-01 4.550177e-08 8.464151e-07 9.246831e-02
1.4325         1.529988e-07 2.149411e-06 6.717435e-01 1.071751e-07 1.296747e-06 5.793749e-01 4.582364e-08 8.526647e-07 9.236858e-02
1.44           1.543444e-07 2.154019e-06 6.712309e-01 1.080730e-07 1.295150e-06 5.789613e-01 4.627144e-08 8.588693e-07 9.226968e-02
1.4475         1.546182e-07 2.164188e-06 6.707192e-01 1.078932e-07 1.298462e-06 5.785477e-01 4.672497e-08 8.657261e-07 9.217155e-02
1.455          1.546951e-07 2.162180e-06 6.702117e-01 1.075954e-07 1.290368e-06 5.781374e-01 4.709972e-08 8.718117e-07 9.207423e-02
1.4625         1.546394e-07 2.166488e-06 6.697090e-01 1.072225e-07 1.288814e-06 5.777312e-01 4.741691e-08 8.776741e-07 9.197774e-02
1.47           1.554087e-07 2.168592e-06 6.692103e-01 1.076189e-07 1.285148e-06 5.773282e-01 4.778974e-08 8.834436e-07 9.188208e-02
1.4775         1.564226e-07 2.170547e-06 6.687116e-01 1.081597e-07 1.281686e-06 5.769244e-01 4.826294e-08 8.888604e-07 9.178718e-02
1.485          1.392312e-07 2.211617e-06 6.682163e-01 9.032748e-08 1.319369e-06 5.765233e-01 4.890373e-08 8.922480e-07 9.169306e-02
1.4925         1.402812e-07 2.210304e-06 6.677252e-01 9.068312e-08 1.315202e-06 5.761255e-01 4.959807e-08 8.951020e-07 9.159973e-02
1.5            1.406516e-07 2.220347e-06 6.672346e-01 9.042097e-08 1.321199e-06 5.757275e-01 5.023064e-08 8.991477e-07 9.150715e-02
1.5075         1.409114e-07 2.209288e-06 6.667517e-01 9.008554e-08 1.306668e-06 5.753364e-01 5.082591e-08 9.026200e-07 9.141536e-02
1.515          1.425348e-07 2.220243e-06 6.662798e-01 9.104344e-08 1.313487e-06 5.749554e-01 5.149134e-08 9.067560e-07 9.132448e-02
1.5225         1.428991e-07 2.216127e-06 6.657860e-01 9.077409e-08 1.305281e-06 5.745518e-01 5.212496e-08 9.108465e-07 9.123416e-02
1.53           1.445822e-07 2.221122e-06 6.653065e-01 9.177122e-08 1.306136e-06 5.741620e-01 5.281097e-08 9.149856e-07 9.114449e-02
1.5375         1.442701e-07 2.227451e-06 6.648345e-01 9.089121e-08 1.307588e-06 5.737789e-01 5.337889e-08 9.198631e-07 9.105561e-02
1.545          1.455542e-07 2.203125e-06 6.643617e-01 9.160683e-08 1.281397e-06 5.733943e-01 5.394740e-08 9.217281e-07 9.096746e-02
1.5525         1.451969e-07 2.216288e-06 6.638893e-01 9.077431e-08 1.291781e-06 5.730093e-01 5.442257e-08 9.245072e-07 9.087998e-02
1.56           1.463047e-07 2.218653e-06 6.634287e-01 9.139815e-08 1.290100e-06 5.726355e-01 5.490660e-08 9.285531e-07 9.079326e-02
1.5675         1.462525e-07 2.214285e-06 6.629645e-01 9.090186e-08 1.282296e-06 5.722572e-01 5.535063e-08 9.319892e-07 9.070726e-02
1.575          1.466085e-07 2.209844e-06 6.625041e-01 9.085544e-08 1.275165e-06 5.718822e-01 5.575310e-08 9.346791e-07 9.062192e-02
1.5825         1.478663e-07 2.226823e-06 6.620448e-01 9.163271e-08 1.287514e-06 5.715076e-01 5.623359e-08 9.393091e-07 9.053723e-02
1.59           1.483811e-07 2.211636e-06 6.615893e-01 9.165284e-08 1.269146e-06 5.711361e-01 5.672830e-08 9.424899e-07 9.045323e-02
1.5975         1.489536e-07 2.224751e-06 6.611428e-01 9.175532e-08 1.278375e-06 5.707729e-01 5.719825e-08 9.463760e-07 9.036996e-02
1.605          1.495335e-07 2.229806e-06 6.606771e-01 9.187570e-08 1.278568e-06 5.703900e-01 5.765781e-08 9.512382e-07 9.028716e-02
1.6125         1.493221e-07 2.208206e-06 6.602314e-01 9.129627e-08 1.254959e-06 5.700263e-01 5.802584e-08 9.532475e-07 9.020507e-02
1.62           1.495157e-07 2.209520e-06 6.597893e-01 9.117067e-08 1.254634e-06 5.696656e-01 5.834505e-08 9.548857e-07 9.012372e-02
1.6275         1.505431e-07 2.212843e-06 6.593461e-01 9.179737e-08 1.255171e-06 5.693031e-01 5.874568e-08 9.576716e-07 9.004301e-02
1.635          1.500372e-07 2.215552e-06 6.589068e-01 9.097334e-08 1.254540e-06 5.689439e-01 5.906389e-08 9.610115e-07 8.996292e-02
1.6425         1.514570e-07 2.214577e-06 6.584667e-01 9.200085e-08 1.250398e-06 5.685833e-01 5.945612e-08 9.641785e-07 8.988342e-02
1.65           1.505881e-07 2.205376e-06 6.580370e-01 9.084971e-08 1.239246e-06 5.682324e-01 5.973834e-08 9.661306e-07 8.980460e-02
1.6575         1.521136e-07 2.211309e-06 6.575983e-01 9.199583e-08 1.242456e-06 5.678720e-01 6.011777e-08 9.688526e-07 8.972630e-02
1.665          1.522416e-07 2.218537e-06 6.571665e-01 9.173155e-08 1.245777e-06 5.675180e-01 6.051008e-08 9.727598e-07 8.964857e-02
1.6725         1.518226e-07 2.206761e-06 6.567380e-01 9.106068e-08 1.231660e-06 5.671666e-01 6.076190e-08 9.751011e-07 8.957143e-02
1.68           1.523864e-07 2.213801e-06 6.563150e-01 9.134868e-08 1.235822e-06 5.668201e-01 6.103771e-08 9.779795e-07 8.949492e-02