# Force       
# CofR        : 0.000000e+00 0.000000e+00 0.000000e+00
#
# Time        	total_x total_y total_z	pressure_x pressure_y pressure_z	viscous_x viscous_y viscous_z
0.004166      	-3.950881e-05 -2.494999e-04 9.176757e+01	-4.943601e-05 -2.646792e-04 9.128837e+01	9.927200e-06 1.517935e-05 4.792056e-01
0.008332      	2.000554e-05 -7.978240e-05 -8.223278e+00	6.546820e-06 -1.063735e-04 -8.469736e+00	1.345872e-05 2.659115e-05 2.464577e-01
0.012498      	-1.079827e-05 -3.441040e-05 -1.202555e+01	-2.888136e-05 -6.640511e-05 -1.219158e+01	1.808309e-05 3.199471e-05 1.660343e-01
0.016664      	-1.508762e-05 -2.075023e-05 -1.216056e+00	-3.998318e-05 -5.538330e-05 -1.316879e+00	2.489557e-05 3.463306e-05 1.008236e-01
0.02083       	-2.193205e-05 -7.042400e-05 6.231107e-01	-5.058736e-05 -1.076217e-04 5.514391e-01	2.865532e-05 3.719773e-05 7.167161e-02
0.024996      	4.713336e-05 4.898387e-05 -5.113219e-01	1.963586e-05 1.275386e-05 -5.686041e-01	2.749750e-05 3.623001e-05 5.728222e-02
0.029162      	-1.678713e-05 -1.940521e-05 -4.659723e-01	-4.182684e-05 -5.300797e-05 -5.119001e-01	2.503971e-05 3.360276e-05 4.592782e-02
0.033328      	-3.947676e-06 -1.167653e-05 -3.736549e-01	-2.766200e-05 -4.418802e-05 -4.108446e-01	2.371432e-05 3.251149e-05 3.718965e-02
0.037494      	3.569197e-06 -1.992569e-06 -3.528780e-01	-1.803442e-05 -3.284760e-05 -3.832554e-01	2.160361e-05 3.085503e-05 3.037740e-02
0.04166       	-3.732621e-06 -6.611092e-06 -3.629089e-01	-2.326896e-05 -3.574744e-05 -3.876262e-01	1.953634e-05 2.913635e-05 2.471725e-02
0.045826      	2.165699e-06 -1.472325e-06 -3.733331e-01	-1.514789e-05 -2.872861e-05 -3.931732e-01	1.731359e-05 2.725629e-05 1.984017e-02
0.049992      	-1.464245e-07 -3.283289e-06 -3.913804e-01	-1.547857e-05 -2.862312e-05 -4.069819e-01	1.533214e-05 2.533983e-05 1.560154e-02
0.054158      	-1.103038e-06 -3.892974e-06 -4.097255e-01	-1.517721e-05 -2.791784e-05 -4.216090e-01	1.407418e-05 2.402487e-05 1.188353e-02
0.058324      	1.230314e-06 -1.072087e-06 -4.260653e-01	-1.154312e-05 -2.368059e-05 -4.346531e-01	1.277344e-05 2.260851e-05 8.587744e-03
0.06249       	2.315556e-06 -3.178825e-06 -4.424785e-01	-9.468625e-06 -2.479027e-05 -4.481354e-01	1.178418e-05 2.161145e-05 5.656909e-03
0.066656      	-6.109069e-07 -3.945813e-06 -4.606566e-01	-1.173417e-05 -2.492400e-05 -4.637033e-01	1.112326e-05 2.097819e-05 3.046770e-03
0.070822      	-1.883538e-06 -6.886105e-06 -4.771830e-01	-1.227089e-05 -2.703639e-05 -4.779036e-01	1.038736e-05 2.015028e-05 7.205401e-04
0.074988      	3.558010e-06 -9.916772e-07 -4.939869e-01	-6.148088e-06 -2.026722e-05 -4.926408e-01	9.706098e-06 1.927554e-05 -1.346151e-03
0.079154      	9.222912e-07 -3.284974e-06 -5.065532e-01	-8.360484e-06 -2.177899e-05 -5.033641e-01	9.282775e-06 1.849402e-05 -3.189127e-03
0.08332       	6.226656e-07 -4.188522e-06 -5.196460e-01	-8.277445e-06 -2.191609e-05 -5.148138e-01	8.900111e-06 1.772756e-05 -4.832262e-03
0.087486      	1.595728e-06 -3.214421e-06 -5.326432e-01	-6.957316e-06 -2.019803e-05 -5.263461e-01	8.553044e-06 1.698361e-05 -6.297157e-03
0.091652      	7.329840e-07 -4.666155e-06 -5.447849e-01	-7.556816e-06 -2.094717e-05 -5.371822e-01	8.289800e-06 1.628101e-05 -7.602694e-03
0.095818      	2.248363e-06 -3.610304e-06 -5.560722e-01	-5.783406e-06 -1.920763e-05 -5.473058e-01	8.031768e-06 1.559733e-05 -8.766357e-03
0.099984      	1.398365e-06 -4.046699e-06 -5.671179e-01	-6.420649e-06 -1.900586e-05 -5.573137e-01	7.819014e-06 1.495916e-05 -9.804201e-03
0.10415       	6.819386e-08 -6.924342e-06 -5.755470e-01	-7.578994e-06 -2.126567e-05 -5.648134e-01	7.647188e-06 1.434133e-05 -1.073363e-02
0.108316      	1.659933e-06 -5.651913e-06 -5.829880e-01	-5.819197e-06 -1.941055e-05 -5.714203e-01	7.479130e-06 1.375864e-05 -1.156769e-02
0.112482      	2.604610e-06 -4.252463e-06 -5.918399e-01	-4.755890e-06 -1.750168e-05 -5.795263e-01	7.360499e-06 1.324922e-05 -1.231361e-02
0.116648      	1.465641e-06 -5.799825e-06 -5.997314e-01	-5.804810e-06 -1.857906e-05 -5.867521e-01	7.270451e-06 1.277924e-05 -1.297925e-02
0.120814      	2.940099e-06 -5.611842e-06 -6.068177e-01	-4.229778e-06 -1.792744e-05 -5.932472e-01	7.169877e-06 1.231560e-05 -1.357049e-02
0.12498       	1.545839e-06 -6.016008e-06 -6.143513e-01	-5.522336e-06 -1.787283e-05 -6.002598e-01	7.068175e-06 1.185682e-05 -1.409150e-02
0.129146      	-5.629101e-07 -7.203745e-06 -6.202264e-01	-7.541073e-06 -1.860851e-05 -6.056624e-01	6.978163e-06 1.140477e-05 -1.456396e-02
0.133312      	2.556981e-06 -6.905164e-06 -6.260588e-01	-4.305027e-06 -1.786690e-05 -6.110650e-01	6.862008e-06 1.096174e-05 -1.499388e-02
0.137478      	2.524998e-06 -8.007790e-06 -6.300234e-01	-4.146149e-06 -1.853075e-05 -6.146416e-01	6.671147e-06 1.052296e-05 -1.538181e-02
0.141644      	1.486691e-07 -8.637699e-06 -6.352003e-01	-6.419435e-06 -1.879256e-05 -6.194717e-01	6.568104e-06 1.015486e-05 -1.572855e-02
0.14581       	6.877600e-07 -8.488743e-06 -6.402587e-01	-5.747362e-06 -1.823703e-05 -6.242205e-01	6.435122e-06 9.748292e-06 -1.603826e-02
0.149976      	1.690988e-06 -8.217352e-06 -6.450926e-01	-4.578353e-06 -1.755390e-05 -6.287768e-01	6.269341e-06 9.336549e-06 -1.631586e-02
0.154142      	1.237100e-06 -8.635985e-06 -6.493184e-01	-4.844127e-06 -1.757396e-05 -6.327614e-01	6.081228e-06 8.937976e-06 -1.655698e-02
0.158308      	1.072449e-06 -9.244717e-06 -6.537988e-01	-4.806318e-06 -1.780480e-05 -6.370329e-01	5.878767e-06 8.560083e-06 -1.676586e-02
0.162474      	5.896034e-07 -9.911027e-06 -6.582902e-01	-5.094725e-06 -1.812145e-05 -6.413402e-01	5.684328e-06 8.210428e-06 -1.695000e-02
0.16664       	6.970265e-07 -9.486291e-06 -6.622506e-01	-4.778631e-06 -1.737065e-05 -6.451401e-01	5.475657e-06 7.884358e-06 -1.711051e-02
0.170806      	1.437764e-06 -9.298193e-06 -6.658299e-01	-3.782999e-06 -1.683918e-05 -6.485823e-01	5.220764e-06 7.540992e-06 -1.724760e-02
0.174972      	2.472337e-07 -1.100882e-05 -6.683770e-01	-4.733300e-06 -1.829801e-05 -6.510134e-01	4.980534e-06 7.289183e-06 -1.736353e-02
0.179138      	3.086157e-08 -1.087774e-05 -6.715357e-01	-4.790194e-06 -1.804193e-05 -6.540724e-01	4.821056e-06 7.164189e-06 -1.746329e-02
0.183304      	5.487950e-07 -1.010258e-05 -6.749800e-01	-4.101027e-06 -1.699555e-05 -6.574326e-01	4.649822e-06 6.892965e-06 -1.754741e-02
0.18747       	8.382577e-07 -9.705322e-06 -6.783008e-01	-3.630256e-06 -1.629537e-05 -6.606847e-01	4.468514e-06 6.590044e-06 -1.761612e-02
0.191636      	6.152671e-07 -1.057747e-05 -6.814647e-01	-3.665917e-06 -1.690084e-05 -6.637940e-01	4.281185e-06 6.323371e-06 -1.767075e-02
0.195802      	4.124623e-07 -1.032294e-05 -6.842302e-01	-3.679669e-06 -1.638159e-05 -6.665172e-01	4.092131e-06 6.058657e-06 -1.771309e-02
0.199968      	9.225415e-07 -1.013104e-05 -6.873219e-01	-2.968506e-06 -1.589525e-05 -6.695775e-01	3.891047e-06 5.764205e-06 -1.774438e-02
0.204134      	-1.378501e-07 -1.058774e-05 -6.900016e-01	-3.877054e-06 -1.610637e-05 -6.722359e-01	3.739204e-06 5.518632e-06 -1.776566e-02
0.2083        	8.295875e-07 -9.937848e-06 -6.929136e-01	-2.758634e-06 -1.521204e-05 -6.751351e-01	3.588222e-06 5.274189e-06 -1.777844e-02
0.212466      	1.099679e-06 -9.213815e-06 -6.955487e-01	-2.422853e-06 -1.435698e-05 -6.777663e-01	3.522532e-06 5.143168e-06 -1.778238e-02
0.216632      	9.373338e-07 -9.900194e-06 -6.979511e-01	-2.443811e-06 -1.488862e-05 -6.801732e-01	3.381144e-06 4.988426e-06 -1.777782e-02
0.220798      	6.565607e-07 -9.544857e-06 -7.003272e-01	-2.553141e-06 -1.432925e-05 -6.825605e-01	3.209702e-06 4.784391e-06 -1.776671e-02
0.224964      	1.317135e-06 -9.023584e-06 -7.026880e-01	-1.756276e-06 -1.363383e-05 -6.849386e-01	3.073411e-06 4.610246e-06 -1.774937e-02
0.22913       	1.267793e-06 -9.511050e-06 -7.046952e-01	-1.656340e-06 -1.394659e-05 -6.869697e-01	2.924133e-06 4.435535e-06 -1.772553e-02
0.233296      	1.178322e-06 -8.939489e-06 -7.068377e-01	-1.669611e-06 -1.320637e-05 -6.891427e-01	2.847933e-06 4.266877e-06 -1.769494e-02
0.237462      	1.219899e-06 -9.240123e-06 -7.091664e-01	-1.558780e-06 -1.334751e-05 -6.915075e-01	2.778678e-06 4.107385e-06 -1.765888e-02
0.241628      	1.980472e-06 -8.499138e-06 -7.113937e-01	-7.063525e-07 -1.247355e-05 -6.937751e-01	2.686824e-06 3.974414e-06 -1.761861e-02
0.245794      	2.495397e-06 -8.151495e-06 -7.136215e-01	-7.810363e-08 -1.197945e-05 -6.960476e-01	2.573501e-06 3.827957e-06 -1.757387e-02
0.24996       	1.646463e-06 -9.109975e-06 -7.157822e-01	-7.825145e-07 -1.279284e-05 -6.982569e-01	2.428977e-06 3.682867e-06 -1.752531e-02
0.254126      	-1.156061e-06 -1.183779e-05 -7.178767e-01	-3.568608e-06 -1.548882e-05 -7.004036e-01	2.412547e-06 3.651027e-06 -1.747311e-02
0.258292      	-3.856104e-07 -1.165136e-05 -7.197762e-01	-2.817930e-06 -1.529924e-05 -7.023606e-01	2.432320e-06 3.647877e-06 -1.741561e-02
0.262458      	1.622452e-06 -9.780390e-06 -7.218092e-01	-7.766755e-07 -1.338209e-05 -7.044555e-01	2.399128e-06 3.601698e-06 -1.735365e-02
0.266624      	2.009632e-06 -8.917292e-06 -7.237581e-01	-3.080813e-07 -1.243646e-05 -7.064697e-01	2.317713e-06 3.519168e-06 -1.728836e-02
0.27079       	1.008630e-06 -1.036541e-05 -7.256995e-01	-1.239329e-06 -1.379591e-05 -7.084788e-01	2.247959e-06 3.430495e-06 -1.722074e-02
0.274956      	-1.779827e-06 -1.352283e-05 -7.274133e-01	-4.055947e-06 -1.697296e-05 -7.102628e-01	2.276120e-06 3.450128e-06 -1.715051e-02
0.279122      	2.731271e-06 -8.763273e-06 -7.292687e-01	4.567233e-07 -1.213891e-05 -7.121914e-01	2.274548e-06 3.375637e-06 -1.707726e-02
0.283288      	3.341338e-06 -7.759034e-06 -7.309911e-01	1.117695e-06 -1.096009e-05 -7.139890e-01	2.223644e-06 3.201053e-06 -1.700210e-02
0.287454      	3.273974e-06 -7.325985e-06 -7.325888e-01	1.100121e-06 -1.038679e-05 -7.156637e-01	2.173853e-06 3.060810e-06 -1.692513e-02
0.29162       	4.185981e-06 -6.841381e-06 -7.343831e-01	2.068802e-06 -9.776999e-06 -7.175361e-01	2.117178e-06 2.935618e-06 -1.684693e-02
0.295786      	1.840943e-06 -1.030679e-05 -7.359282e-01	-2.193851e-07 -1.312668e-05 -7.191608e-01	2.060328e-06 2.819887e-06 -1.676739e-02
0.299952      	2.425917e-06 -8.878203e-06 -7.375544e-01	4.199956e-07 -1.161071e-05 -7.208691e-01	2.005922e-06 2.732511e-06 -1.668535e-02
0.304118      	3.679903e-06 -8.373594e-06 -7.393049e-01	1.739697e-06 -1.100095e-05 -7.227025e-01	1.940205e-06 2.627353e-06 -1.660239e-02
0.308284      	3.476528e-06 -8.427836e-06 -7.408605e-01	1.604091e-06 -1.095219e-05 -7.243416e-01	1.872437e-06 2.524351e-06 -1.651898e-02
0.31245       	3.964545e-06 -7.717262e-06 -7.424358e-01	2.148797e-06 -1.016668e-05 -7.260005e-01	1.815748e-06 2.449422e-06 -1.643533e-02
0.316616      	3.834536e-06 -9.114364e-06 -7.439450e-01	2.073379e-06 -1.149343e-05 -7.275923e-01	1.761156e-06 2.379066e-06 -1.635275e-02
0.320782      	3.584776e-06 -9.286969e-06 -7.456464e-01	1.874434e-06 -1.161327e-05 -7.293767e-01	1.710341e-06 2.326299e-06 -1.626969e-02
0.324948      	4.067643e-06 -9.588044e-06 -7.471664e-01	2.406859e-06 -1.188690e-05 -7.309809e-01	1.660784e-06 2.298851e-06 -1.618546e-02
0.329114      	3.864430e-06 -9.396173e-06 -7.485746e-01	2.258957e-06 -1.168329e-05 -7.324744e-01	1.605473e-06 2.287118e-06 -1.610019e-02
0.33328       	4.440798e-06 -9.699032e-06 -7.501043e-01	2.883588e-06 -1.196983e-05 -7.340922e-01	1.557210e-06 2.270800e-06 -1.601214e-02
0.337446      	4.248855e-06 -9.600813e-06 -7.516410e-01	2.741077e-06 -1.186025e-05 -7.357201e-01	1.507778e-06 2.259437e-06 -1.592083e-02
0.341612      	4.348930e-06 -1.000898e-05 -7.532093e-01	2.894775e-06 -1.225302e-05 -7.373838e-01	1.454156e-06 2.244047e-06 -1.582550e-02
0.345778      	4.709834e-06 -9.594059e-06 -7.547175e-01	3.299281e-06 -1.183456e-05 -7.389928e-01	1.410553e-06 2.240497e-06 -1.572466e-02
0.349944      	4.584043e-06 -9.967828e-06 -7.561014e-01	3.230748e-06 -1.221892e-05 -7.404820e-01	1.353295e-06 2.251096e-06 -1.561938e-02
0.35411       	4.849885e-06 -1.033263e-05 -7.573877e-01	3.547641e-06 -1.259741e-05 -7.418647e-01	1.302244e-06 2.264786e-06 -1.552295e-02
0.358276      	4.597896e-06 -1.070261e-05 -7.587816e-01	3.332864e-06 -1.298679e-05 -7.433471e-01	1.265033e-06 2.284173e-06 -1.543450e-02
0.362442      	5.171864e-06 -1.040161e-05 -7.601344e-01	3.935453e-06 -1.271942e-05 -7.447888e-01	1.236411e-06 2.317819e-06 -1.534563e-02
0.366608      	5.038762e-06 -1.040979e-05 -7.615144e-01	3.849322e-06 -1.272932e-05 -7.462615e-01	1.189440e-06 2.319524e-06 -1.525288e-02
0.370774      	4.937169e-06 -1.089724e-05 -7.628054e-01	3.806436e-06 -1.321372e-05 -7.476487e-01	1.130733e-06 2.316480e-06 -1.515665e-02
0.37494       	5.436836e-06 -1.078459e-05 -7.641379e-01	4.349750e-06 -1.312278e-05 -7.490770e-01	1.087086e-06 2.338186e-06 -1.506087e-02
0.379106      	5.421330e-06 -1.139635e-05 -7.654788e-01	4.371967e-06 -1.377046e-05 -7.505129e-01	1.049363e-06 2.374109e-06 -1.496585e-02
0.383272      	5.722090e-06 -1.095511e-05 -7.668744e-01	4.727191e-06 -1.336396e-05 -7.520028e-01	9.948986e-07 2.408847e-06 -1.487155e-02
0.387438      	5.764909e-06 -1.131405e-05 -7.679738e-01	4.831345e-06 -1.375484e-05 -7.531987e-01	9.335644e-07 2.440785e-06 -1.477518e-02
0.391604      	5.802842e-06 -1.161250e-05 -7.692343e-01	4.929106e-06 -1.409295e-05 -7.545579e-01	8.737360e-07 2.480450e-06 -1.467638e-02
0.39577       	5.937763e-06 -1.211216e-05 -7.704678e-01	5.132579e-06 -1.463856e-05 -7.558918e-01	8.051841e-07 2.526399e-06 -1.457603e-02
0.399936      	6.379694e-06 -1.176431e-05 -7.716502e-01	5.651562e-06 -1.433646e-05 -7.571758e-01	7.281323e-07 2.572144e-06 -1.447438e-02
0.404102      	6.689800e-06 -1.174391e-05 -7.727524e-01	6.055140e-06 -1.435911e-05 -7.583818e-01	6.346592e-07 2.615202e-06 -1.437052e-02
0.408268      	6.631245e-06 -1.156644e-05 -7.738145e-01	6.088106e-06 -1.422476e-05 -7.595501e-01	5.431385e-07 2.658314e-06 -1.426445e-02
0.412434      	5.251961e-06 -1.280906e-05 -7.749017e-01	4.740158e-06 -1.552092e-05 -7.607446e-01	5.118035e-07 2.711861e-06 -1.415711e-02
0.4166        	6.214061e-06 -1.229532e-05 -7.759464e-01	5.726736e-06 -1.507608e-05 -7.618977e-01	4.873247e-07 2.780763e-06 -1.404868e-02
0.420766      	6.030124e-06 -1.244055e-05 -7.769279e-01	5.583117e-06 -1.528423e-05 -7.629887e-01	4.470077e-07 2.843682e-06 -1.393921e-02
0.424932      	5.845715e-06 -1.298932e-05 -7.779097e-01	5.442113e-06 -1.589552e-05 -7.640809e-01	4.036018e-07 2.906197e-06 -1.382872e-02
0.429098      	6.258084e-06 -1.283951e-05 -7.787669e-01	5.889214e-06 -1.582015e-05 -7.650497e-01	3.688708e-07 2.980639e-06 -1.371719e-02
0.433264      	5.822321e-06 -1.353604e-05 -7.796468e-01	5.488256e-06 -1.659104e-05 -7.660424e-01	3.340645e-07 3.054996e-06 -1.360433e-02
0.43743       	5.521941e-06 -1.345353e-05 -7.804368e-01	5.226830e-06 -1.658841e-05 -7.669466e-01	2.951109e-07 3.134880e-06 -1.349024e-02
0.441596      	5.736390e-06 -1.371710e-05 -7.810782e-01	5.473299e-06 -1.693866e-05 -7.677034e-01	2.630910e-07 3.221561e-06 -1.337489e-02
0.445762      	5.315563e-06 -1.388414e-05 -7.817229e-01	5.076915e-06 -1.719938e-05 -7.684643e-01	2.386478e-07 3.315235e-06 -1.325860e-02
0.449928      	5.446237e-06 -1.389733e-05 -7.823042e-01	5.241256e-06 -1.731201e-05 -7.691633e-01	2.049809e-07 3.414677e-06 -1.314086e-02
0.454094      	5.260696e-06 -1.425834e-05 -7.828465e-01	5.103017e-06 -1.776694e-05 -7.698248e-01	1.576789e-07 3.508607e-06 -1.302176e-02
0.45826       	5.199207e-06 -1.423324e-05 -7.833116e-01	5.069013e-06 -1.784614e-05 -7.704099e-01	1.301930e-07 3.612904e-06 -1.290170e-02
0.462426      	4.997735e-06 -1.436127e-05 -7.836523e-01	4.904418e-06 -1.807367e-05 -7.708714e-01	9.331716e-08 3.712401e-06 -1.278088e-02
0.466592      	5.132343e-06 -1.431399e-05 -7.839560e-01	5.063842e-06 -1.812799e-05 -7.712970e-01	6.850025e-08 3.813995e-06 -1.265901e-02
0.470758      	4.787073e-06 -1.467031e-05 -7.841616e-01	4.735054e-06 -1.859456e-05 -7.716251e-01	5.201913e-08 3.924250e-06 -1.253643e-02
0.474924      	4.542639e-06 -1.478069e-05 -7.843648e-01	4.506813e-06 -1.882123e-05 -7.719517e-01	3.582614e-08 4.040539e-06 -1.241313e-02
0.47909       	4.599926e-06 -1.502579e-05 -7.843554e-01	4.570437e-06 -1.918811e-05 -7.720668e-01	2.948915e-08 4.162321e-06 -1.228863e-02
0.483256      	4.166784e-06 -1.482294e-05 -7.848955e-01	4.139616e-06 -1.911739e-05 -7.727314e-01	2.716833e-08 4.294454e-06 -1.216413e-02
0.487422      	4.020826e-06 -1.495651e-05 -7.834129e-01	3.993785e-06 -1.938686e-05 -7.713763e-01	2.704063e-08 4.430344e-06 -1.203668e-02
0.491588      	3.986536e-06 -1.496314e-05 -7.840866e-01	3.953755e-06 -1.952896e-05 -7.721776e-01	3.278118e-08 4.565823e-06 -1.190899e-02
0.495754      	3.589972e-06 -1.479114e-05 -7.838662e-01	3.544328e-06 -1.949455e-05 -7.720848e-01	4.564443e-08 4.703411e-06 -1.178140e-02
0.49992       	3.437650e-06 -1.482939e-05 -7.834080e-01	3.383914e-06 -1.967537e-05 -7.717557e-01	5.373578e-08 4.845987e-06 -1.165232e-02
0.504086      	3.121164e-06 -1.504241e-05 -7.827574e-01	3.052118e-06 -2.004025e-05 -7.712360e-01	6.904636e-08 4.997840e-06 -1.152136e-02
0.508252      	3.051562e-06 -1.474009e-05 -7.819963e-01	2.957272e-06 -1.989147e-05 -7.706077e-01	9.428947e-08 5.151382e-06 -1.138861e-02
0.512418      	3.141996e-06 -1.437197e-05 -7.810664e-01	3.019537e-06 -1.967784e-05 -7.698124e-01	1.224591e-07 5.305872e-06 -1.125396e-02
0.516584      	3.143357e-06 -1.428563e-05 -7.799624e-01	2.986845e-06 -1.974408e-05 -7.688447e-01	1.565123e-07 5.458459e-06 -1.111764e-02
0.52075       	2.660869e-06 -1.456611e-05 -7.787061e-01	2.470620e-06 -2.017007e-05 -7.677258e-01	1.902489e-07 5.603958e-06 -1.098037e-02
0.524916      	2.926848e-06 -1.386148e-05 -7.773358e-01	2.705409e-06 -1.961563e-05 -7.664940e-01	2.214387e-07 5.754153e-06 -1.084184e-02
0.529082      	2.735667e-06 -1.349857e-05 -7.757225e-01	2.461810e-06 -1.940972e-05 -7.650204e-01	2.738566e-07 5.911148e-06 -1.070207e-02
0.533248      	2.686607e-06 -1.356052e-05 -7.739395e-01	2.354948e-06 -1.962082e-05 -7.633785e-01	3.316591e-07 6.060298e-06 -1.056102e-02
0.537414      	2.224221e-06 -1.336236e-05 -7.719881e-01	1.837961e-06 -1.956886e-05 -7.615691e-01	3.862598e-07 6.206497e-06 -1.041904e-02
0.54158       	2.280681e-06 -1.308195e-05 -7.698806e-01	1.845985e-06 -1.943146e-05 -7.596039e-01	4.346962e-07 6.349505e-06 -1.027667e-02
0.545746      	1.863487e-06 -1.283356e-05 -7.675199e-01	1.366718e-06 -1.932402e-05 -7.573855e-01	4.967689e-07 6.490460e-06 -1.013438e-02
0.549912      	1.820012e-06 -1.261471e-05 -7.649881e-01	1.251342e-06 -1.924270e-05 -7.549957e-01	5.686708e-07 6.627986e-06 -9.992441e-03
0.554078      	2.269416e-06 -1.187547e-05 -7.623435e-01	1.621416e-06 -1.864206e-05 -7.524918e-01	6.479997e-07 6.766591e-06 -9.851696e-03
0.558244      	2.029479e-06 -1.157683e-05 -7.594193e-01	1.299644e-06 -1.847653e-05 -7.497063e-01	7.298356e-07 6.899695e-06 -9.713004e-03
0.56241       	2.146926e-06 -1.145294e-05 -7.563813e-01	1.328764e-06 -1.847850e-05 -7.468041e-01	8.181620e-07 7.025564e-06 -9.577169e-03
0.566576      	2.210222e-06 -1.079757e-05 -7.531021e-01	1.299729e-06 -1.794201e-05 -7.436574e-01	9.104933e-07 7.144437e-06 -9.444707e-03
0.570742      	2.147905e-06 -1.031256e-05 -7.496316e-01	1.141732e-06 -1.756802e-05 -7.403150e-01	1.006173e-06 7.255456e-06 -9.316588e-03
0.574908      	1.072074e-06 -9.715330e-06 -7.459746e-01	-1.015127e-07 -1.708544e-05 -7.367806e-01	1.173587e-06 7.370113e-06 -9.193978e-03
0.579074      	5.357072e-07 -1.000616e-05 -7.421794e-01	-8.698828e-07 -1.752672e-05 -7.331015e-01	1.405590e-06 7.520565e-06 -9.077863e-03
0.58324       	1.637643e-06 -8.840288e-06 -7.382528e-01	2.967346e-08 -1.649023e-05 -7.292832e-01	1.607969e-06 7.649939e-06 -8.969614e-03
0.587406      	1.985696e-06 -8.067680e-06 -7.341384e-01	2.519462e-07 -1.581785e-05 -7.252681e-01	1.733750e-06 7.750174e-06 -8.870362e-03
0.591572      	1.678552e-06 -7.808067e-06 -7.298670e-01	-2.111883e-07 -1.564102e-05 -7.210866e-01	1.889740e-06 7.832956e-06 -8.780474e-03
0.595738      	1.568655e-06 -7.529747e-06 -7.254893e-01	-4.820781e-07 -1.542628e-05 -7.167883e-01	2.050733e-06 7.896532e-06 -8.701049e-03
0.599904      	-1.430690e-07 -8.948253e-06 -7.209694e-01	-2.394951e-06 -1.692946e-05 -7.123367e-01	2.251883e-06 7.981207e-06 -8.632741e-03
0.60407       	1.119815e-06 -6.508840e-06 -7.163467e-01	-1.310673e-06 -1.453670e-05 -7.077703e-01	2.430488e-06 8.027859e-06 -8.576428e-03
0.608236      	1.124777e-06 -5.469474e-06 -7.116824e-01	-1.509035e-06 -1.351284e-05 -7.031487e-01	2.633812e-06 8.043364e-06 -8.533743e-03
0.612402      	1.184914e-06 -5.012750e-06 -7.069116e-01	-1.674525e-06 -1.306677e-05 -6.984064e-01	2.859439e-06 8.054020e-06 -8.505137e-03
0.616568      	1.445706e-08 -5.648134e-06 -7.021048e-01	-3.062163e-06 -1.370110e-05 -6.936135e-01	3.076620e-06 8.052964e-06 -8.491283e-03
0.620734      	5.304714e-07 -4.466850e-06 -6.972315e-01	-2.762303e-06 -1.252020e-05 -6.887388e-01	3.292774e-06 8.053346e-06 -8.492722e-03
0.6249        	5.045382e-07 -3.858899e-06 -6.923567e-01	-3.011935e-06 -1.191707e-05 -6.838468e-01	3.516473e-06 8.058173e-06 -8.509930e-03
0.629066      	-1.202605e-07 -3.911443e-06 -6.874973e-01	-3.856895e-06 -1.196987e-05 -6.789542e-01	3.736635e-06 8.058427e-06 -8.543104e-03
0.633232      	-1.153807e-07 -3.424956e-06 -6.826713e-01	-4.064881e-06 -1.147822e-05 -6.740787e-01	3.949500e-06 8.053262e-06 -8.592673e-03
0.637398      	4.970163e-09 -2.686847e-06 -6.778736e-01	-4.150357e-06 -1.073221e-05 -6.692150e-01	4.155327e-06 8.045359e-06 -8.658607e-03
0.641564      	-6.315487e-07 -2.738228e-06 -6.731567e-01	-4.982274e-06 -1.077080e-05 -6.644155e-01	4.350725e-06 8.032577e-06 -8.741204e-03
0.64573       	-2.819808e-07 -1.407142e-06 -6.684794e-01	-4.824234e-06 -9.436614e-06 -6.596390e-01	4.542253e-06 8.029472e-06 -8.840385e-03
0.649896      	-8.165848e-07 -1.801769e-06 -6.639487e-01	-5.534258e-06 -9.815689e-06 -6.549927e-01	4.717673e-06 8.013919e-06 -8.955934e-03
0.654062      	-2.155562e-07 -4.227488e-07 -6.595056e-01	-5.097099e-06 -8.420443e-06 -6.504184e-01	4.881542e-06 7.997694e-06 -9.087231e-03
0.658228      	-5.755227e-07 -3.279878e-07 -6.551447e-01	-5.601095e-06 -8.306325e-06 -6.459109e-01	5.025573e-06 7.978337e-06 -9.233817e-03
0.662394      	-4.554574e-07 1.183181e-07 -6.508393e-01	-5.600941e-06 -7.835624e-06 -6.414442e-01	5.145484e-06 7.953942e-06 -9.395086e-03
0.66656       	-1.216712e-06 7.479188e-07 -6.466588e-01	-6.493043e-06 -7.192741e-06 -6.370890e-01	5.276331e-06 7.940660e-06 -9.569777e-03
0.670726      	-1.464478e-06 2.847829e-07 -6.425624e-01	-6.866622e-06 -7.635005e-06 -6.328058e-01	5.402144e-06 7.919788e-06 -9.756680e-03
0.674892      	-2.622164e-06 1.152110e-07 -6.386029e-01	-8.175848e-06 -7.825370e-06 -6.286484e-01	5.553684e-06 7.940581e-06 -9.954570e-03
0.679058      	-1.532651e-06 1.332424e-06 -6.347439e-01	-7.186726e-06 -6.627506e-06 -6.245818e-01	5.654074e-06 7.959930e-06 -1.016209e-02
0.683224      	-2.259138e-06 1.472000e-06 -6.309927e-01	-7.974371e-06 -6.484459e-06 -6.206148e-01	5.715232e-06 7.956458e-06 -1.037797e-02
0.68739       	-2.834661e-06 1.037801e-06 -6.273289e-01	-8.601605e-06 -6.918551e-06 -6.167282e-01	5.766944e-06 7.956352e-06 -1.060067e-02
0.691556      	-2.398877e-06 1.261151e-06 -6.237503e-01	-8.184495e-06 -6.676585e-06 -6.129218e-01	5.785618e-06 7.937736e-06 -1.082848e-02
0.695722      	-2.959990e-06 1.912211e-06 -6.202217e-01	-8.759212e-06 -6.025059e-06 -6.091616e-01	5.799221e-06 7.937270e-06 -1.106010e-02
0.699888      	-3.866732e-06 6.554719e-07 -6.167643e-01	-9.685482e-06 -7.286785e-06 -6.054702e-01	5.818749e-06 7.942257e-06 -1.129409e-02
0.704054      	-2.611646e-06 3.149907e-06 -6.134463e-01	-8.410692e-06 -4.797024e-06 -6.019179e-01	5.799046e-06 7.946931e-06 -1.152840e-02
0.70822       	-3.250607e-06 2.027795e-06 -6.101403e-01	-9.015317e-06 -5.903946e-06 -5.983792e-01	5.764710e-06 7.931742e-06 -1.176118e-02
0.712386      	-3.561689e-06 1.924284e-06 -6.068161e-01	-9.295138e-06 -5.995147e-06 -5.948249e-01	5.733449e-06 7.919432e-06 -1.199111e-02
0.716552      	-3.360658e-06 2.333418e-06 -6.035744e-01	-9.040457e-06 -5.571845e-06 -5.913581e-01	5.679799e-06 7.905263e-06 -1.221631e-02
0.720718      	-3.594567e-06 2.389272e-06 -6.003158e-01	-9.209310e-06 -5.502061e-06 -5.878802e-01	5.614743e-06 7.891333e-06 -1.243553e-02
0.724884      	-3.356352e-06 2.892366e-06 -5.969866e-01	-8.904579e-06 -4.986834e-06 -5.843382e-01	5.548227e-06 7.879200e-06 -1.264839e-02
0.72905       	-3.517183e-06 2.292573e-06 -5.936797e-01	-8.994796e-06 -5.566786e-06 -5.808257e-01	5.477613e-06 7.859359e-06 -1.285404e-02
0.733216      	-3.556579e-06 2.798670e-06 -5.903137e-01	-8.964634e-06 -5.045438e-06 -5.772620e-01	5.408055e-06 7.844108e-06 -1.305165e-02
0.737382      	-3.923778e-06 4.481794e-07 -5.869067e-01	-9.258784e-06 -7.350950e-06 -5.736660e-01	5.335006e-06 7.799130e-06 -1.324071e-02
0.741548      	-3.778378e-06 2.746560e-06 -5.835086e-01	-9.031844e-06 -5.025304e-06 -5.700885e-01	5.253466e-06 7.771864e-06 -1.342013e-02
0.745714      	-3.711897e-06 2.733888e-06 -5.800720e-01	-8.881760e-06 -5.024085e-06 -5.664826e-01	5.169863e-06 7.757974e-06 -1.358940e-02
0.74988       	-3.687792e-06 2.168006e-06 -5.765676e-01	-8.776307e-06 -5.563679e-06 -5.628194e-01	5.088515e-06 7.731684e-06 -1.374822e-02
0.754046      	-3.767050e-06 1.768987e-06 -5.729733e-01	-8.780814e-06 -5.930205e-06 -5.590770e-01	5.013765e-06 7.699193e-06 -1.389632e-02
0.758212      	-3.711690e-06 1.426570e-06 -5.693288e-01	-8.652690e-06 -6.237394e-06 -5.552953e-01	4.941000e-06 7.663964e-06 -1.403351e-02
0.762378      	-3.838755e-06 2.230259e-06 -5.656049e-01	-8.709910e-06 -5.409043e-06 -5.514454e-01	4.871155e-06 7.639302e-06 -1.415948e-02
0.766544      	-3.779065e-06 1.730918e-06 -5.618185e-01	-8.581689e-06 -5.879921e-06 -5.475440e-01	4.802624e-06 7.610839e-06 -1.427445e-02
0.77071       	-3.772957e-06 1.169614e-06 -5.580018e-01	-8.509465e-06 -6.405197e-06 -5.436237e-01	4.736509e-06 7.574811e-06 -1.437814e-02
0.774876      	-3.622962e-06 2.247690e-06 -5.540815e-01	-8.297240e-06 -5.306020e-06 -5.396112e-01	4.674277e-06 7.553710e-06 -1.447030e-02
0.779042      	-3.650312e-06 1.700430e-06 -5.500994e-01	-8.263884e-06 -5.829178e-06 -5.355486e-01	4.613572e-06 7.529608e-06 -1.455077e-02
0.783208      	-3.734366e-06 1.161754e-06 -5.460676e-01	-8.287450e-06 -6.332653e-06 -5.314481e-01	4.553084e-06 7.494408e-06 -1.461951e-02
0.787374      	-3.638007e-06 1.274565e-06 -5.419455e-01	-8.133549e-06 -6.185428e-06 -5.272687e-01	4.495542e-06 7.459992e-06 -1.467675e-02
0.79154       	-3.736898e-06 7.591372e-07 -5.377741e-01	-8.178694e-06 -6.670937e-06 -5.230517e-01	4.441796e-06 7.430075e-06 -1.472238e-02
0.795706      	-3.523435e-06 1.260775e-06 -5.335572e-01	-7.914455e-06 -6.141703e-06 -5.188013e-01	4.391020e-06 7.402478e-06 -1.475595e-02
0.799872      	-3.498251e-06 6.666649e-07 -5.292747e-01	-7.841732e-06 -6.706127e-06 -5.144977e-01	4.343481e-06 7.372792e-06 -1.477695e-02
0.804038      	-3.443831e-06 6.342188e-07 -5.248856e-01	-7.742390e-06 -6.709426e-06 -5.100999e-01	4.298560e-06 7.343645e-06 -1.478564e-02
0.808204      	-3.535244e-06 1.416822e-07 -5.204598e-01	-7.790484e-06 -7.170113e-06 -5.056772e-01	4.255240e-06 7.311795e-06 -1.478260e-02
0.81237       	-3.552850e-06 2.857526e-07 -5.159335e-01	-7.764651e-06 -6.997898e-06 -5.011660e-01	4.211801e-06 7.283650e-06 -1.476750e-02
0.816536      	-3.354711e-06 4.453906e-07 -5.113602e-01	-7.527021e-06 -6.815471e-06 -4.966197e-01	4.172310e-06 7.260861e-06 -1.474047e-02
0.820702      	-3.492802e-06 -3.267126e-07 -5.067330e-01	-7.633175e-06 -7.560898e-06 -4.920313e-01	4.140373e-06 7.234185e-06 -1.470174e-02
0.824868      	-3.549489e-06 -2.391937e-07 -5.019512e-01	-7.657461e-06 -7.449678e-06 -4.872997e-01	4.107973e-06 7.210484e-06 -1.465145e-02
0.829034      	-3.214035e-06 -4.239833e-07 -4.973759e-01	-7.290796e-06 -7.612968e-06 -4.827863e-01	4.076760e-06 7.188985e-06 -1.458963e-02
0.8332        	-3.342386e-06 -6.351643e-07 -4.925677e-01	-7.386426e-06 -7.800041e-06 -4.780513e-01	4.044040e-06 7.164877e-06 -1.451644e-02
0.837366      	-3.239569e-06 -5.924787e-07 -4.876832e-01	-7.254554e-06 -7.731844e-06 -4.732510e-01	4.014985e-06 7.139366e-06 -1.443221e-02
0.841532      	-3.314589e-06 -1.130874e-06 -4.827310e-01	-7.303326e-06 -8.242503e-06 -4.683937e-01	3.988737e-06 7.111629e-06 -1.433731e-02
0.845698      	-3.237414e-06 -1.067376e-06 -4.777456e-01	-7.201412e-06 -8.155822e-06 -4.635136e-01	3.963999e-06 7.088446e-06 -1.423192e-02
0.849864      	-3.231827e-06 -1.342083e-06 -4.727242e-01	-7.172817e-06 -8.406752e-06 -4.586078e-01	3.940990e-06 7.064668e-06 -1.411640e-02
0.85403       	-3.233768e-06 -1.567659e-06 -4.676188e-01	-7.152940e-06 -8.608297e-06 -4.536277e-01	3.919171e-06 7.040638e-06 -1.399102e-02
0.858196      	-3.157725e-06 -1.707903e-06 -4.624994e-01	-7.059014e-06 -8.725521e-06 -4.486431e-01	3.901289e-06 7.017618e-06 -1.385625e-02
0.862362      	-3.293464e-06 -1.707330e-06 -4.573108e-01	-7.173875e-06 -8.701678e-06 -4.435979e-01	3.880412e-06 6.994348e-06 -1.371289e-02
0.866528      	-3.141009e-06 -1.951651e-06 -4.521247e-01	-7.005240e-06 -8.925703e-06 -4.385636e-01	3.864231e-06 6.974052e-06 -1.356107e-02
0.870694      	-3.150750e-06 -2.141612e-06 -4.468741e-01	-7.002790e-06 -9.090460e-06 -4.334728e-01	3.852041e-06 6.948847e-06 -1.340137e-02
0.87486       	-3.344162e-06 -2.653084e-06 -4.415345e-01	-7.180248e-06 -9.567532e-06 -4.283003e-01	3.836086e-06 6.914448e-06 -1.323420e-02
0.879026      	-3.244371e-06 -2.559609e-06 -4.361854e-01	-7.069435e-06 -9.448040e-06 -4.231257e-01	3.825064e-06 6.888431e-06 -1.305974e-02
0.883192      	-3.203076e-06 -2.860623e-06 -4.308139e-01	-7.020829e-06 -9.723575e-06 -4.179352e-01	3.817753e-06 6.862952e-06 -1.287869e-02
0.887358      	-2.962584e-06 -2.743335e-06 -4.254093e-01	-6.764063e-06 -9.573968e-06 -4.127177e-01	3.801479e-06 6.830633e-06 -1.269163e-02
0.891524      	-2.874481e-06 -2.988386e-06 -4.199581e-01	-6.662973e-06 -9.793317e-06 -4.074592e-01	3.788493e-06 6.804931e-06 -1.249887e-02
0.89569       	-3.241587e-06 -3.435176e-06 -4.145126e-01	-7.022308e-06 -1.021117e-05 -4.022117e-01	3.780722e-06 6.775997e-06 -1.230094e-02
0.899856      	-3.108332e-06 -3.384018e-06 -4.088708e-01	-6.885491e-06 -1.013287e-05 -3.967729e-01	3.777160e-06 6.748850e-06 -1.209793e-02