# Moment      
# CofR        : (0.000000e+00 0.000000e+00 0.000000e+00)
#
# Time        	(total_x total_y total_z)	(pressure_x pressure_y pressure_z)	(viscous_x viscous_y viscous_z)
0.004166      	(-5.801621e-05 9.870573e-05 -4.429292e-08)	(-4.931524e-05 1.069166e-04 3.837841e-09)	(-8.700978e-06 -8.210870e-06 -4.813076e-08)
0.008332      	(-4.915597e-05 -3.351656e-05 -5.168140e-08)	(-3.685469e-05 -1.917368e-05 3.055443e-09)	(-1.230128e-05 -1.434289e-05 -5.473684e-08)
0.012498      	(-1.725705e-05 -4.853640e-05 -3.508798e-08)	(-9.160843e-06 -3.010512e-05 1.790691e-09)	(-8.096209e-06 -1.843128e-05 -3.687867e-08)
0.016664      	(-3.066256e-05 -2.485162e-05 -2.071183e-08)	(-2.787684e-05 -5.223691e-06 1.012097e-09)	(-2.785719e-06 -1.962793e-05 -2.172393e-08)
0.02083       	(-4.128880e-05 -1.872800e-05 -1.137405e-08)	(-4.146747e-05 4.886495e-07 7.489074e-10)	(1.786732e-07 -1.921665e-05 -1.212296e-08)
0.024996      	(2.041833e-05 -5.128653e-05 -5.945420e-09)	(1.754763e-05 -3.233379e-05 7.027775e-10)	(2.870706e-06 -1.895274e-05 -6.648198e-09)
0.029162      	(-2.845832e-05 -8.754505e-06 -3.091671e-09)	(-3.267788e-05 9.138701e-06 6.251183e-10)	(4.219560e-06 -1.789321e-05 -3.716789e-09)
0.033328      	(-9.553488e-06 -2.362144e-05 -7.587723e-10)	(-1.451016e-05 -6.857545e-06 5.979889e-10)	(4.956676e-06 -1.676389e-05 -1.356761e-09)
0.037494      	(-5.336198e-06 -2.214426e-05 6.856982e-10)	(-1.091619e-05 -6.322585e-06 5.529341e-10)	(5.579993e-06 -1.582167e-05 1.327641e-10)
0.04166       	(-8.711572e-06 -1.695672e-05 1.079659e-09)	(-1.451497e-05 -2.167421e-06 5.169642e-10)	(5.803394e-06 -1.478930e-05 5.626949e-10)
0.045826      	(-6.477577e-06 -1.623297e-05 1.577656e-09)	(-1.228454e-05 -2.442080e-06 4.976582e-10)	(5.806966e-06 -1.379089e-05 1.079997e-09)
0.049992      	(-6.199734e-06 -1.479269e-05 2.225506e-09)	(-1.196797e-05 -1.873825e-06 4.759986e-10)	(5.768236e-06 -1.291886e-05 1.749507e-09)
0.054158      	(-5.579562e-06 -1.357011e-05 2.973293e-09)	(-1.122935e-05 -1.471471e-06 4.544296e-10)	(5.649785e-06 -1.209864e-05 2.518864e-09)
0.058324      	(-3.462994e-06 -1.258397e-05 4.953433e-09)	(-8.878240e-06 -1.264013e-06 4.140113e-10)	(5.415246e-06 -1.131996e-05 4.539421e-09)
0.06249       	(-7.175559e-06 -1.045758e-05 6.237778e-09)	(-1.239407e-05 1.571907e-07 3.890582e-10)	(5.218509e-06 -1.061477e-05 5.848720e-09)
0.066656      	(-5.464836e-06 -1.040220e-05 5.680285e-09)	(-1.058469e-05 -4.106048e-07 4.308774e-10)	(5.119859e-06 -9.991594e-06 5.249408e-09)
0.070822      	(-3.830994e-06 -9.967516e-06 5.284806e-09)	(-8.865549e-06 -5.458247e-07 3.940178e-10)	(5.034555e-06 -9.421691e-06 4.890788e-09)
0.074988      	(-3.997026e-06 -8.915903e-06 6.020501e-09)	(-8.914297e-06 -4.039823e-08 3.496920e-10)	(4.917271e-06 -8.875505e-06 5.670809e-09)
0.079154      	(-3.441130e-06 -8.715422e-06 6.608482e-09)	(-8.223042e-06 -3.581343e-07 3.329871e-10)	(4.781912e-06 -8.357288e-06 6.275494e-09)
0.08332       	(-2.284830e-06 -8.275368e-06 6.923093e-09)	(-6.932681e-06 -4.050444e-07 3.127839e-10)	(4.647851e-06 -7.870324e-06 6.610309e-09)
0.087486      	(-1.839911e-06 -7.993543e-06 7.160042e-09)	(-6.356030e-06 -5.791487e-07 2.929162e-10)	(4.516118e-06 -7.414394e-06 6.867126e-09)
0.091652      	(-1.293894e-06 -7.719510e-06 7.315121e-09)	(-5.682366e-06 -7.358022e-07 2.721340e-10)	(4.388472e-06 -6.983707e-06 7.042987e-09)
0.095818      	(-6.712007e-07 -7.192094e-06 7.587044e-09)	(-4.933383e-06 -6.150429e-07 2.541434e-10)	(4.262182e-06 -6.577051e-06 7.332900e-09)
0.099984      	(2.011050e-07 -7.276847e-06 7.905828e-09)	(-3.935749e-06 -1.079543e-06 2.337209e-10)	(4.136853e-06 -6.197303e-06 7.672108e-09)
0.10415       	(1.172770e-06 -7.512962e-06 8.131843e-09)	(-2.836668e-06 -1.670634e-06 2.155800e-10)	(4.009438e-06 -5.842328e-06 7.916263e-09)
0.108316      	(1.637894e-06 -6.906148e-06 8.113072e-09)	(-2.242646e-06 -1.405418e-06 1.995977e-10)	(3.880540e-06 -5.500730e-06 7.913475e-09)
0.112482      	(1.918886e-06 -7.068093e-06 7.729620e-09)	(-1.844132e-06 -1.890845e-06 1.842559e-10)	(3.763018e-06 -5.177248e-06 7.545364e-09)
0.116648      	(2.596562e-06 -6.837532e-06 7.503381e-09)	(-1.052069e-06 -1.968286e-06 1.691966e-10)	(3.648631e-06 -4.869247e-06 7.334184e-09)
0.120814      	(2.790982e-06 -6.300745e-06 7.368662e-09)	(-7.402145e-07 -1.712800e-06 1.562340e-10)	(3.531197e-06 -4.587945e-06 7.212428e-09)
0.12498       	(4.012372e-06 -7.699064e-06 7.098750e-09)	(6.198958e-07 -3.420016e-06 1.423866e-10)	(3.392477e-06 -4.279048e-06 6.956363e-09)
0.129146      	(4.035193e-06 -8.159711e-06 6.889160e-09)	(7.865539e-07 -4.208296e-06 1.008749e-10)	(3.248639e-06 -3.951415e-06 6.788285e-09)
0.133312      	(5.691819e-06 -6.548242e-06 7.164126e-09)	(2.572251e-06 -2.878164e-06 1.194960e-10)	(3.119568e-06 -3.670078e-06 7.044630e-09)
0.137478      	(5.149417e-06 -6.257312e-06 7.322687e-09)	(2.153902e-06 -2.834919e-06 1.026628e-10)	(2.995515e-06 -3.422393e-06 7.220024e-09)
0.141644      	(6.628347e-06 -7.565107e-06 7.106707e-09)	(3.751147e-06 -4.399064e-06 1.078577e-10)	(2.877199e-06 -3.166043e-06 6.998849e-09)
0.14581       	(5.219777e-06 -6.315645e-06 6.892510e-09)	(2.452293e-06 -3.387039e-06 8.325136e-11)	(2.767484e-06 -2.928606e-06 6.809259e-09)
0.149976      	(6.323676e-06 -6.407611e-06 6.755446e-09)	(3.656008e-06 -3.684988e-06 7.416250e-11)	(2.667668e-06 -2.722623e-06 6.681283e-09)
0.154142      	(6.501097e-06 -6.398875e-06 6.407195e-09)	(3.937008e-06 -3.871967e-06 4.433333e-11)	(2.564089e-06 -2.526908e-06 6.362862e-09)
0.158308      	(6.236948e-06 -5.665784e-06 6.375629e-09)	(3.773709e-06 -3.329680e-06 6.183226e-11)	(2.463239e-06 -2.336104e-06 6.313797e-09)
0.162474      	(7.255739e-06 -6.243511e-06 6.217156e-09)	(4.877764e-06 -4.084438e-06 3.515963e-11)	(2.377975e-06 -2.159073e-06 6.181996e-09)
0.16664       	(7.164701e-06 -6.209900e-06 5.932608e-09)	(4.864415e-06 -4.208849e-06 3.297082e-11)	(2.300285e-06 -2.001051e-06 5.899637e-09)
0.170806      	(7.303091e-06 -6.081492e-06 5.745839e-09)	(5.061216e-06 -4.220492e-06 1.487900e-11)	(2.241875e-06 -1.861000e-06 5.730960e-09)
0.174972      	(7.200663e-06 -5.346743e-06 5.663555e-09)	(5.038586e-06 -3.629726e-06 2.174708e-11)	(2.162077e-06 -1.717017e-06 5.641808e-09)
0.179138      	(6.770701e-06 -5.488098e-06 5.368100e-09)	(4.715817e-06 -3.920200e-06 1.726595e-11)	(2.054884e-06 -1.567898e-06 5.350834e-09)
0.183304      	(7.969502e-06 -5.367067e-06 4.984396e-09)	(5.983871e-06 -3.931999e-06 6.896551e-12)	(1.985631e-06 -1.435068e-06 4.977500e-09)
0.18747       	(7.044918e-06 -5.460459e-06 4.682642e-09)	(5.110737e-06 -4.147371e-06 4.024137e-12)	(1.934181e-06 -1.313088e-06 4.678618e-09)
0.191636      	(7.784809e-06 -5.254101e-06 4.356211e-09)	(5.901956e-06 -4.054967e-06 -1.670520e-12)	(1.882853e-06 -1.199133e-06 4.357881e-09)
0.195802      	(7.380370e-06 -5.270475e-06 4.041782e-09)	(5.541813e-06 -4.177657e-06 -7.455097e-12)	(1.838556e-06 -1.092818e-06 4.049237e-09)
0.199968      	(7.442971e-06 -4.852351e-06 3.723700e-09)	(5.645059e-06 -3.858316e-06 -1.152561e-11)	(1.797913e-06 -9.940348e-07 3.735225e-09)
0.204134      	(7.191733e-06 -4.478268e-06 3.409024e-09)	(5.444083e-06 -3.588567e-06 -2.198614e-11)	(1.747650e-06 -8.897007e-07 3.431010e-09)
0.2083        	(7.415066e-06 -4.526484e-06 3.167700e-09)	(5.719394e-06 -3.731499e-06 -2.010538e-11)	(1.695673e-06 -7.949848e-07 3.187805e-09)
0.212466      	(8.606831e-06 -5.181883e-06 2.847506e-09)	(6.944005e-06 -4.465163e-06 -3.384491e-11)	(1.662826e-06 -7.167195e-07 2.881351e-09)
0.216632      	(6.955854e-06 -3.987899e-06 2.547070e-09)	(5.339690e-06 -3.352425e-06 -3.103288e-11)	(1.616164e-06 -6.354740e-07 2.578103e-09)
0.220798      	(6.950187e-06 -3.920849e-06 2.342679e-09)	(5.389548e-06 -3.362566e-06 -3.712602e-11)	(1.560639e-06 -5.582836e-07 2.379805e-09)
0.224964      	(8.037826e-06 -4.283104e-06 1.997684e-09)	(6.520112e-06 -3.791357e-06 -4.392647e-11)	(1.517713e-06 -4.917467e-07 2.041611e-09)
0.22913       	(7.405301e-06 -4.167415e-06 1.558976e-09)	(5.930706e-06 -3.733120e-06 -4.282232e-11)	(1.474595e-06 -4.342949e-07 1.601799e-09)
0.233296      	(6.963462e-06 -3.918142e-06 1.191354e-09)	(5.534098e-06 -3.543809e-06 -4.504920e-11)	(1.429363e-06 -3.743330e-07 1.236403e-09)
0.237462      	(6.723413e-06 -3.496131e-06 8.735357e-10)	(5.343903e-06 -3.180385e-06 -5.682542e-11)	(1.379510e-06 -3.157459e-07 9.303611e-10)
0.241628      	(7.207550e-06 -3.909431e-06 7.171154e-10)	(5.872602e-06 -3.643014e-06 -5.401471e-11)	(1.334948e-06 -2.664170e-07 7.711302e-10)
0.245794      	(7.153835e-06 -3.534277e-06 6.759306e-10)	(5.861236e-06 -3.313238e-06 -5.883136e-11)	(1.292600e-06 -2.210395e-07 7.347620e-10)
0.24996       	(5.911763e-06 -2.826450e-06 4.580682e-10)	(4.673810e-06 -2.656259e-06 -8.869343e-11)	(1.237952e-06 -1.701907e-07 5.467617e-10)
0.254126      	(5.112768e-06 -1.771925e-06 6.792240e-11)	(3.955738e-06 -1.679139e-06 -3.959150e-11)	(1.157030e-06 -9.278636e-08 1.075139e-10)
0.258292      	(4.556027e-06 -1.867559e-06 -2.566309e-10)	(3.472513e-06 -1.838132e-06 -2.478367e-11)	(1.083514e-06 -2.942777e-08 -2.318472e-10)
0.262458      	(5.949878e-06 -2.333572e-06 -5.238301e-10)	(4.901615e-06 -2.332142e-06 -4.456427e-11)	(1.048264e-06 -1.429695e-09 -4.792659e-10)
0.266624      	(5.857153e-06 -2.839258e-06 -7.183159e-10)	(4.831081e-06 -2.850238e-06 -4.383172e-11)	(1.026072e-06 1.098085e-08 -6.744842e-10)
0.27079       	(4.749238e-06 -1.525844e-06 -9.945306e-10)	(3.760678e-06 -1.561495e-06 -6.632074e-11)	(9.885602e-07 3.565166e-08 -9.282099e-10)
0.274956      	(2.888969e-06 -3.496493e-08 -1.121178e-09)	(1.973595e-06 -1.226105e-07 5.093212e-11)	(9.153745e-07 8.764558e-08 -1.172110e-09)
0.279122      	(5.453810e-06 -2.240474e-06 -1.385928e-09)	(4.565027e-06 -2.338628e-06 -4.072430e-11)	(8.887832e-07 9.815463e-08 -1.345203e-09)
0.283288      	(6.918183e-06 -2.402446e-06 -1.583604e-09)	(6.020389e-06 -2.489929e-06 -4.459669e-11)	(8.977940e-07 8.748273e-08 -1.539007e-09)
0.287454      	(5.663716e-06 -2.263169e-06 -1.808956e-09)	(4.769653e-06 -2.351757e-06 -4.327726e-11)	(8.940635e-07 8.858744e-08 -1.765679e-09)
0.29162       	(5.870502e-06 -2.065144e-06 -2.034930e-09)	(4.990059e-06 -2.154240e-06 -5.861364e-11)	(8.804427e-07 8.909663e-08 -1.976316e-09)
0.295786      	(3.878509e-06 -6.188072e-07 -2.104726e-09)	(3.038291e-06 -7.246964e-07 -1.879795e-11)	(8.402183e-07 1.058892e-07 -2.085928e-09)
0.299952      	(4.854410e-06 -7.493676e-07 -2.239285e-09)	(4.059200e-06 -8.761735e-07 -3.905077e-11)	(7.952105e-07 1.268059e-07 -2.200234e-09)
0.304118      	(4.640196e-06 -9.641884e-07 -2.456762e-09)	(3.874739e-06 -1.103057e-06 -4.191125e-11)	(7.654572e-07 1.388688e-07 -2.414851e-09)
0.308284      	(4.291589e-06 -7.599333e-07 -2.694525e-09)	(3.555450e-06 -9.040166e-07 -3.782282e-11)	(7.361391e-07 1.440833e-07 -2.656702e-09)
0.31245       	(5.023849e-06 -6.836417e-07 -2.825989e-09)	(4.308856e-06 -8.355336e-07 -3.786971e-11)	(7.149931e-07 1.518919e-07 -2.788120e-09)
0.316616      	(4.339280e-06 -3.670453e-07 -2.933473e-09)	(3.649366e-06 -5.277236e-07 -3.304713e-11)	(6.899141e-07 1.606784e-07 -2.900426e-09)
0.320782      	(4.152181e-06 -1.435214e-07 -3.020508e-09)	(3.487954e-06 -3.107958e-07 -2.835619e-11)	(6.642267e-07 1.672744e-07 -2.992152e-09)
0.324948      	(3.915770e-06 1.184394e-07 -3.129565e-09)	(3.274353e-06 -5.807103e-08 -2.538766e-11)	(6.414167e-07 1.765104e-07 -3.104178e-09)
0.329114      	(3.919910e-06 2.549598e-07 -3.256301e-09)	(3.299834e-06 7.535445e-08 -2.122046e-11)	(6.200762e-07 1.796053e-07 -3.235080e-09)
0.33328       	(3.823651e-06 3.604418e-07 -3.398056e-09)	(3.227857e-06 1.825084e-07 -1.804315e-11)	(5.957934e-07 1.779334e-07 -3.380012e-09)
0.337446      	(3.670202e-06 5.475469e-07 -3.448735e-09)	(3.100158e-06 3.693548e-07 -7.992004e-12)	(5.700438e-07 1.781921e-07 -3.440743e-09)
0.341612      	(3.925714e-06 8.934615e-07 -3.475730e-09)	(3.384898e-06 7.170527e-07 -3.576433e-12)	(5.408162e-07 1.764089e-07 -3.472154e-09)
0.345778      	(4.122030e-06 8.785876e-07 -3.440468e-09)	(3.612742e-06 7.064650e-07 3.201710e-12)	(5.092882e-07 1.721226e-07 -3.443670e-09)
0.349944      	(3.673635e-06 1.063993e-06 -3.605016e-09)	(3.189855e-06 8.777851e-07 4.804386e-12)	(4.837803e-07 1.862080e-07 -3.609820e-09)
0.35411       	(3.238009e-06 1.123714e-06 -3.758066e-09)	(2.768133e-06 9.205713e-07 8.352244e-12)	(4.698764e-07 2.031428e-07 -3.766419e-09)
0.358276      	(3.786144e-06 1.527942e-06 -3.756518e-09)	(3.329368e-06 1.319151e-06 9.890010e-12)	(4.567758e-07 2.087904e-07 -3.766408e-09)
0.362442      	(3.920687e-06 1.654022e-06 -3.681603e-09)	(3.482204e-06 1.446697e-06 3.761880e-11)	(4.384831e-07 2.073256e-07 -3.719222e-09)
0.366608      	(3.542810e-06 1.931720e-06 -3.675885e-09)	(3.127776e-06 1.724584e-06 1.533772e-11)	(4.150339e-07 2.071365e-07 -3.691222e-09)
0.370774      	(3.201035e-06 2.161420e-06 -3.590142e-09)	(2.806331e-06 1.946536e-06 3.109862e-11)	(3.947042e-07 2.148841e-07 -3.621240e-09)
0.37494       	(3.671061e-06 2.200979e-06 -3.565796e-09)	(3.288100e-06 1.975599e-06 3.820923e-11)	(3.829612e-07 2.253795e-07 -3.604005e-09)
0.379106      	(3.916091e-06 2.443683e-06 -3.542994e-09)	(3.547363e-06 2.210009e-06 4.133884e-11)	(3.687280e-07 2.336742e-07 -3.584332e-09)
0.383272      	(4.056119e-06 2.387824e-06 -3.547705e-09)	(3.699043e-06 2.147047e-06 4.659104e-11)	(3.570762e-07 2.407769e-07 -3.594296e-09)
0.387438      	(4.034643e-06 2.520545e-06 -3.540374e-09)	(3.688472e-06 2.273480e-06 4.869443e-11)	(3.461711e-07 2.470653e-07 -3.589069e-09)
0.391604      	(3.963192e-06 2.844223e-06 -3.494372e-09)	(3.631424e-06 2.589675e-06 4.976956e-11)	(3.317677e-07 2.545483e-07 -3.544142e-09)
0.39577       	(4.037324e-06 3.123959e-06 -3.419583e-09)	(3.718458e-06 2.858395e-06 4.764017e-11)	(3.188660e-07 2.655649e-07 -3.467223e-09)
0.399936      	(4.210556e-06 3.163862e-06 -3.395700e-09)	(3.904492e-06 2.887051e-06 5.748912e-11)	(3.060638e-07 2.768107e-07 -3.453189e-09)
0.404102      	(4.277569e-06 3.614467e-06 -3.377753e-09)	(3.983769e-06 3.324448e-06 6.965838e-11)	(2.937994e-07 2.900187e-07 -3.447411e-09)
0.408268      	(4.263574e-06 3.712203e-06 -3.319919e-09)	(3.981006e-06 3.404278e-06 7.667896e-11)	(2.825684e-07 3.079246e-07 -3.396598e-09)
0.412434      	(4.719619e-06 2.949086e-06 -3.258459e-09)	(4.443403e-06 2.632487e-06 7.884323e-11)	(2.762167e-07 3.165993e-07 -3.337303e-09)
0.4166        	(4.724433e-06 3.482981e-06 -3.216409e-09)	(4.452874e-06 3.153012e-06 7.983810e-11)	(2.715592e-07 3.299695e-07 -3.296247e-09)
0.420766      	(4.598145e-06 3.550937e-06 -3.163620e-09)	(4.334469e-06 3.201829e-06 8.510245e-11)	(2.636764e-07 3.491088e-07 -3.248722e-09)
0.424932      	(5.005949e-06 3.781445e-06 -3.100613e-09)	(4.748989e-06 3.411415e-06 9.177705e-11)	(2.569604e-07 3.700308e-07 -3.192390e-09)
0.429098      	(5.159723e-06 3.724209e-06 -3.058598e-09)	(4.907110e-06 3.333349e-06 9.799183e-11)	(2.526135e-07 3.908594e-07 -3.156590e-09)
0.433264      	(5.326248e-06 3.749138e-06 -3.030850e-09)	(5.078179e-06 3.335934e-06 9.570810e-11)	(2.480693e-07 4.132040e-07 -3.126558e-09)
0.43743       	(5.569585e-06 3.878154e-06 -2.966013e-09)	(5.325791e-06 3.439725e-06 1.008616e-10)	(2.437936e-07 4.384287e-07 -3.066875e-09)
0.441596      	(5.864539e-06 3.794990e-06 -2.896924e-09)	(5.623777e-06 3.330243e-06 1.032359e-10)	(2.407629e-07 4.647470e-07 -3.000159e-09)
0.445762      	(6.173025e-06 3.876094e-06 -2.857548e-09)	(5.934343e-06 3.382368e-06 1.060838e-10)	(2.386826e-07 4.937256e-07 -2.963631e-09)
0.449928      	(6.138266e-06 3.878438e-06 -2.818825e-09)	(5.901808e-06 3.354390e-06 1.115066e-10)	(2.364579e-07 5.240482e-07 -2.930331e-09)
0.454094      	(6.285378e-06 3.895557e-06 -2.783546e-09)	(6.050709e-06 3.339333e-06 1.160627e-10)	(2.346687e-07 5.562242e-07 -2.899608e-09)
0.45826       	(6.726914e-06 3.799827e-06 -2.751255e-09)	(6.493200e-06 3.206864e-06 1.174188e-10)	(2.337137e-07 5.929625e-07 -2.868674e-09)
0.462426      	(6.605801e-06 3.871173e-06 -2.743623e-09)	(6.374113e-06 3.239725e-06 1.197342e-10)	(2.316878e-07 6.314481e-07 -2.863357e-09)
0.466592      	(6.812865e-06 3.862482e-06 -2.738274e-09)	(6.584374e-06 3.188996e-06 1.218224e-10)	(2.284917e-07 6.734858e-07 -2.860096e-09)
0.470758      	(7.086754e-06 3.904800e-06 -2.751330e-09)	(6.860516e-06 3.185043e-06 1.255660e-10)	(2.262375e-07 7.197578e-07 -2.876896e-09)
0.474924      	(7.220731e-06 3.813137e-06 -2.773758e-09)	(6.997551e-06 3.045014e-06 1.332656e-10)	(2.231799e-07 7.681229e-07 -2.907024e-09)
0.47909       	(7.611100e-06 3.761847e-06 -2.823961e-09)	(7.391526e-06 2.943222e-06 1.343031e-10)	(2.195743e-07 8.186245e-07 -2.958264e-09)
0.483256      	(7.753713e-06 3.755154e-06 -2.870875e-09)	(7.537831e-06 2.881884e-06 1.386599e-10)	(2.158821e-07 8.732709e-07 -3.009535e-09)
0.487422      	(7.851463e-06 3.656383e-06 -2.912636e-09)	(7.640162e-06 2.724626e-06 1.390523e-10)	(2.113017e-07 9.317572e-07 -3.051689e-09)
0.491588      	(8.054859e-06 3.652707e-06 -2.945135e-09)	(7.849843e-06 2.658886e-06 1.432237e-10)	(2.050161e-07 9.938212e-07 -3.088359e-09)
0.495754      	(8.202448e-06 3.683246e-06 -3.012266e-09)	(8.002952e-06 2.623552e-06 1.502230e-10)	(1.994952e-07 1.059694e-06 -3.162489e-09)
0.49992       	(8.034785e-06 3.614327e-06 -3.096047e-09)	(7.841907e-06 2.486675e-06 1.521732e-10)	(1.928776e-07 1.127652e-06 -3.248220e-09)
0.504086      	(8.207637e-06 3.789107e-06 -3.202873e-09)	(8.023042e-06 2.589408e-06 1.578768e-10)	(1.845950e-07 1.199698e-06 -3.360749e-09)
0.508252      	(8.314329e-06 3.597098e-06 -3.307930e-09)	(8.139156e-06 2.322054e-06 1.683032e-10)	(1.751726e-07 1.275044e-06 -3.476234e-09)
0.512418      	(8.342582e-06 3.586724e-06 -3.407769e-09)	(8.178992e-06 2.234062e-06 1.734582e-10)	(1.635895e-07 1.352662e-06 -3.581227e-09)
0.516584      	(8.308283e-06 3.499088e-06 -3.511843e-09)	(8.156096e-06 2.065925e-06 1.835800e-10)	(1.521871e-07 1.433163e-06 -3.695423e-09)
0.52075       	(8.391265e-06 3.514147e-06 -3.614082e-09)	(8.251568e-06 1.996682e-06 1.936624e-10)	(1.396971e-07 1.517465e-06 -3.807745e-09)
0.524916      	(8.506204e-06 3.488212e-06 -3.713009e-09)	(8.381541e-06 1.883038e-06 2.039254e-10)	(1.246627e-07 1.605174e-06 -3.916934e-09)
0.529082      	(8.410184e-06 3.420995e-06 -3.822673e-09)	(8.303711e-06 1.725045e-06 2.159442e-10)	(1.064734e-07 1.695949e-06 -4.038617e-09)
0.533248      	(8.211592e-06 3.447600e-06 -3.935458e-09)	(8.124742e-06 1.659061e-06 2.268220e-10)	(8.684971e-08 1.788539e-06 -4.162280e-09)
0.537414      	(8.231314e-06 3.503508e-06 -4.052337e-09)	(8.163677e-06 1.620122e-06 2.395064e-10)	(6.763633e-08 1.883386e-06 -4.291844e-09)
0.54158       	(8.061921e-06 3.516173e-06 -4.177440e-09)	(8.016006e-06 1.536549e-06 2.527893e-10)	(4.591535e-08 1.979623e-06 -4.430229e-09)
0.545746      	(7.986987e-06 3.515848e-06 -4.289898e-09)	(7.964724e-06 1.437303e-06 2.655649e-10)	(2.226304e-08 2.078545e-06 -4.555463e-09)
0.549912      	(7.872515e-06 3.536895e-06 -4.394312e-09)	(7.874286e-06 1.357806e-06 2.829040e-10)	(-1.771240e-09 2.179089e-06 -4.677216e-09)
0.554078      	(7.921506e-06 3.702968e-06 -4.502179e-09)	(7.947279e-06 1.421658e-06 2.963695e-10)	(-2.577243e-08 2.281311e-06 -4.798548e-09)
0.558244      	(7.546205e-06 3.609786e-06 -4.600603e-09)	(7.598928e-06 1.226332e-06 3.113953e-10)	(-5.272352e-08 2.383454e-06 -4.911998e-09)
0.56241       	(7.505861e-06 3.618675e-06 -4.689113e-09)	(7.584884e-06 1.133550e-06 3.266055e-10)	(-7.902344e-08 2.485125e-06 -5.015719e-09)
0.566576      	(7.338335e-06 3.690515e-06 -4.779535e-09)	(7.442491e-06 1.104101e-06 3.407913e-10)	(-1.041558e-07 2.586414e-06 -5.120327e-09)
0.570742      	(7.097214e-06 3.874814e-06 -4.870843e-09)	(7.226521e-06 1.187113e-06 3.549358e-10)	(-1.293072e-07 2.687701e-06 -5.225779e-09)
0.574908      	(6.978471e-06 2.702364e-06 -4.944488e-09)	(7.136397e-06 -7.581291e-08 3.622886e-10)	(-1.579259e-07 2.778177e-06 -5.306777e-09)
0.579074      	(7.230914e-06 2.895835e-06 -5.003659e-09)	(7.419022e-06 1.936950e-08 3.583874e-10)	(-1.881085e-07 2.876465e-06 -5.362047e-09)
0.58324       	(6.573005e-06 3.615727e-06 -5.034614e-09)	(6.798186e-06 6.269623e-07 3.693063e-10)	(-2.251804e-07 2.988765e-06 -5.403920e-09)
0.587406      	(6.473591e-06 3.551164e-06 -5.054681e-09)	(6.734959e-06 4.586061e-07 3.794352e-10)	(-2.613678e-07 3.092558e-06 -5.434116e-09)
0.591572      	(6.227819e-06 3.483155e-06 -5.057748e-09)	(6.520179e-06 2.925710e-07 3.877424e-10)	(-2.923597e-07 3.190584e-06 -5.445490e-09)
0.595738      	(6.450966e-06 3.519408e-06 -5.050121e-09)	(6.765255e-06 2.362808e-07 3.908460e-10)	(-3.142898e-07 3.283127e-06 -5.440967e-09)
0.599904      	(7.473671e-06 2.415663e-06 -5.047696e-09)	(7.796460e-06 -9.484211e-07 3.775122e-10)	(-3.227887e-07 3.364084e-06 -5.425208e-09)
0.60407       	(5.976926e-06 3.381244e-06 -5.015293e-09)	(6.332900e-06 -8.041074e-08 3.746776e-10)	(-3.559743e-07 3.461655e-06 -5.389970e-09)
0.608236      	(5.935837e-06 3.381812e-06 -4.961788e-09)	(6.330939e-06 -1.868322e-07 3.872176e-10)	(-3.951017e-07 3.568644e-06 -5.349005e-09)
0.612402      	(5.884487e-06 3.436997e-06 -4.914843e-09)	(6.313180e-06 -2.340044e-07 3.895448e-10)	(-4.286929e-07 3.671001e-06 -5.304388e-09)
0.616568      	(6.025072e-06 3.211720e-06 -4.850893e-09)	(6.482333e-06 -5.519543e-07 3.834874e-10)	(-4.572608e-07 3.763674e-06 -5.234380e-09)
0.620734      	(5.836275e-06 3.331596e-06 -4.752887e-09)	(6.319415e-06 -5.180092e-07 3.786648e-10)	(-4.831395e-07 3.849605e-06 -5.131552e-09)
0.6249        	(5.602321e-06 3.423771e-06 -4.641937e-09)	(6.108420e-06 -5.064939e-07 3.714229e-10)	(-5.060996e-07 3.930265e-06 -5.013360e-09)
0.629066      	(5.769410e-06 3.402266e-06 -4.539998e-09)	(6.294884e-06 -6.018888e-07 3.636586e-10)	(-5.254739e-07 4.004154e-06 -4.903656e-09)
0.633232      	(5.632689e-06 3.425920e-06 -4.432673e-09)	(6.173942e-06 -6.447565e-07 3.543879e-10)	(-5.412526e-07 4.070676e-06 -4.787061e-09)
0.637398      	(5.568723e-06 3.485081e-06 -4.301558e-09)	(6.122431e-06 -6.447341e-07 3.431379e-10)	(-5.537082e-07 4.129815e-06 -4.644696e-09)
0.641564      	(5.761817e-06 3.590958e-06 -4.159560e-09)	(6.324367e-06 -5.902747e-07 3.348762e-10)	(-5.625492e-07 4.181233e-06 -4.494436e-09)
0.64573       	(5.447349e-06 3.706514e-06 -4.042340e-09)	(6.018573e-06 -5.194804e-07 3.180292e-10)	(-5.712241e-07 4.225995e-06 -4.360370e-09)
0.649896      	(5.559357e-06 3.709240e-06 -3.929950e-09)	(6.135829e-06 -5.538654e-07 3.062811e-10)	(-5.764726e-07 4.263105e-06 -4.236231e-09)
0.654062      	(5.538674e-06 3.897899e-06 -3.820333e-09)	(6.118572e-06 -3.965515e-07 2.914380e-10)	(-5.798987e-07 4.294451e-06 -4.111771e-09)
0.658228      	(5.421784e-06 4.002185e-06 -3.725062e-09)	(6.004327e-06 -3.170913e-07 2.799883e-10)	(-5.825432e-07 4.319276e-06 -4.005050e-09)
0.662394      	(5.524002e-06 4.071952e-06 -3.649009e-09)	(6.109149e-06 -2.652753e-07 2.726805e-10)	(-5.851475e-07 4.337227e-06 -3.921689e-09)
0.66656       	(5.413590e-06 3.963974e-06 -3.617395e-09)	(6.001219e-06 -3.834909e-07 2.583505e-10)	(-5.876284e-07 4.347465e-06 -3.875746e-09)
0.670726      	(5.695848e-06 4.196724e-06 -3.606805e-09)	(6.285498e-06 -1.587657e-07 2.537221e-10)	(-5.896501e-07 4.355489e-06 -3.860527e-09)
0.674892      	(5.822207e-06 3.572963e-06 -3.628604e-09)	(6.413602e-06 -7.794805e-07 2.409694e-10)	(-5.913954e-07 4.352444e-06 -3.869574e-09)
0.679058      	(5.590185e-06 4.265313e-06 -3.651616e-09)	(6.188324e-06 -8.479670e-08 2.345112e-10)	(-5.981385e-07 4.350110e-06 -3.886127e-09)
0.683224      	(5.518259e-06 3.976350e-06 -3.741468e-09)	(6.126333e-06 -3.671933e-07 2.312033e-10)	(-6.080745e-07 4.343543e-06 -3.972672e-09)
0.68739       	(5.742635e-06 3.871200e-06 -3.892385e-09)	(6.358848e-06 -4.586733e-07 2.264926e-10)	(-6.162132e-07 4.329873e-06 -4.118878e-09)
0.691556      	(5.560456e-06 4.376080e-06 -4.057404e-09)	(6.187611e-06 5.740781e-08 2.246610e-10)	(-6.271548e-07 4.318672e-06 -4.282065e-09)
0.695722      	(5.692442e-06 4.014290e-06 -4.233834e-09)	(6.330620e-06 -2.868921e-07 2.223813e-10)	(-6.381778e-07 4.301182e-06 -4.456215e-09)
0.699888      	(6.100007e-06 3.577001e-06 -4.431239e-09)	(6.745961e-06 -6.967531e-07 2.201690e-10)	(-6.459537e-07 4.273754e-06 -4.651408e-09)
0.704054      	(5.116498e-06 4.772844e-06 -4.657007e-09)	(5.784195e-06 5.184213e-07 2.197633e-10)	(-6.676977e-07 4.254422e-06 -4.876770e-09)
0.70822       	(5.598582e-06 4.164864e-06 -4.870285e-09)	(6.287571e-06 -6.786584e-08 2.225304e-10)	(-6.889884e-07 4.232730e-06 -5.092816e-09)
0.712386      	(5.621669e-06 4.086837e-06 -5.119855e-09)	(6.327590e-06 -1.163993e-07 2.264356e-10)	(-7.059201e-07 4.203236e-06 -5.346291e-09)
0.716552      	(5.384195e-06 4.518653e-06 -5.377005e-09)	(6.110699e-06 3.443021e-07 2.275276e-10)	(-7.265037e-07 4.174351e-06 -5.604533e-09)
0.720718      	(5.509641e-06 4.100293e-06 -5.637406e-09)	(6.259192e-06 -4.470859e-08 2.280858e-10)	(-7.495509e-07 4.145002e-06 -5.865492e-09)
0.724884      	(5.288750e-06 4.196711e-06 -5.905152e-09)	(6.062369e-06 8.134726e-08 2.298650e-10)	(-7.736189e-07 4.115364e-06 -6.135017e-09)
0.72905       	(5.753013e-06 4.203556e-06 -6.193307e-09)	(6.549334e-06 1.194323e-07 2.318823e-10)	(-7.963212e-07 4.084124e-06 -6.425189e-09)
0.733216      	(5.196688e-06 3.987397e-06 -6.456252e-09)	(6.018147e-06 -6.338731e-08 2.327849e-10)	(-8.214589e-07 4.050784e-06 -6.689037e-09)
0.737382      	(5.943581e-06 3.781856e-06 -6.686114e-09)	(6.785169e-06 -2.332585e-07 2.343883e-10)	(-8.415885e-07 4.015115e-06 -6.920502e-09)
0.741548      	(5.133852e-06 4.168547e-06 -6.891541e-09)	(6.000854e-06 1.914514e-07 2.351951e-10)	(-8.670013e-07 3.977096e-06 -7.126736e-09)
0.745714      	(5.275791e-06 4.028907e-06 -7.082768e-09)	(6.174282e-06 8.644275e-08 2.365698e-10)	(-8.984918e-07 3.942465e-06 -7.319338e-09)
0.74988       	(5.331537e-06 4.005797e-06 -7.260644e-09)	(6.259817e-06 9.833088e-08 2.379642e-10)	(-9.282802e-07 3.907466e-06 -7.498608e-09)
0.754046      	(5.463677e-06 3.618472e-06 -7.448231e-09)	(6.419860e-06 -2.515523e-07 2.390989e-10)	(-9.561824e-07 3.870024e-06 -7.687330e-09)
0.758212      	(5.492592e-06 3.644188e-06 -7.657833e-09)	(6.476178e-06 -1.877040e-07 2.397957e-10)	(-9.835863e-07 3.831892e-06 -7.897628e-09)
0.762378      	(5.254075e-06 3.531188e-06 -7.849798e-09)	(6.267211e-06 -2.607541e-07 2.414729e-10)	(-1.013136e-06 3.791942e-06 -8.091271e-09)
0.766544      	(5.506485e-06 3.423755e-06 -8.022101e-09)	(6.547918e-06 -3.280946e-07 2.424915e-10)	(-1.041433e-06 3.751850e-06 -8.264593e-09)
0.77071       	(5.414841e-06 3.369969e-06 -8.188389e-09)	(6.485708e-06 -3.429655e-07 2.433563e-10)	(-1.070867e-06 3.712934e-06 -8.431746e-09)
0.774876      	(4.913346e-06 3.235147e-06 -8.342661e-09)	(6.017933e-06 -4.402262e-07 2.454433e-10)	(-1.104587e-06 3.675373e-06 -8.588105e-09)
0.779042      	(5.195793e-06 3.159102e-06 -8.483434e-09)	(6.333341e-06 -4.785163e-07 2.471158e-10)	(-1.137547e-06 3.637618e-06 -8.730549e-09)
0.783208      	(5.359021e-06 3.017767e-06 -8.628792e-09)	(6.525886e-06 -5.822753e-07 2.485489e-10)	(-1.166865e-06 3.600043e-06 -8.877341e-09)
0.787374      	(5.233629e-06 2.951488e-06 -8.754384e-09)	(6.431002e-06 -6.122752e-07 2.491905e-10)	(-1.197373e-06 3.563763e-06 -9.003574e-09)
0.79154       	(5.394764e-06 2.953818e-06 -8.861443e-09)	(6.624901e-06 -5.744887e-07 2.491503e-10)	(-1.230137e-06 3.528307e-06 -9.110593e-09)
0.795706      	(5.135330e-06 2.934853e-06 -8.963048e-09)	(6.399781e-06 -5.597388e-07 2.515843e-10)	(-1.264452e-06 3.494592e-06 -9.214632e-09)
0.799872      	(4.959629e-06 2.802817e-06 -9.076914e-09)	(6.258421e-06 -6.603358e-07 2.520381e-10)	(-1.298792e-06 3.463152e-06 -9.328952e-09)
0.804038      	(5.001921e-06 2.694833e-06 -9.183882e-09)	(6.334306e-06 -7.378701e-07 2.527217e-10)	(-1.332385e-06 3.432703e-06 -9.436604e-09)
0.808204      	(5.068383e-06 2.757931e-06 -9.266616e-09)	(6.432755e-06 -6.446381e-07 2.532694e-10)	(-1.364373e-06 3.402569e-06 -9.519885e-09)
0.81237       	(4.995521e-06 2.519916e-06 -9.312013e-09)	(6.392539e-06 -8.532415e-07 2.529340e-10)	(-1.397018e-06 3.373158e-06 -9.564947e-09)
0.816536      	(4.717545e-06 2.507106e-06 -9.340647e-09)	(6.147617e-06 -8.374907e-07 2.546461e-10)	(-1.430072e-06 3.344597e-06 -9.595293e-09)
0.820702      	(5.114393e-06 2.340974e-06 -9.338812e-09)	(6.575051e-06 -9.753734e-07 2.528605e-10)	(-1.460657e-06 3.316348e-06 -9.591673e-09)
0.824868      	(4.849516e-06 2.475596e-06 -9.342145e-09)	(6.340180e-06 -8.127924e-07 2.516753e-10)	(-1.490664e-06 3.288389e-06 -9.593821e-09)
0.829034      	(4.813832e-06 2.405962e-06 -9.390486e-09)	(6.334030e-06 -8.581870e-07 2.510226e-10)	(-1.520198e-06 3.264149e-06 -9.641509e-09)
0.8332        	(4.875629e-06 2.266400e-06 -9.454545e-09)	(6.425993e-06 -9.749305e-07 2.500861e-10)	(-1.550364e-06 3.241330e-06 -9.704632e-09)
0.837366      	(4.658101e-06 2.378982e-06 -9.467876e-09)	(6.238906e-06 -8.401001e-07 2.480462e-10)	(-1.580805e-06 3.219083e-06 -9.715922e-09)
0.841532      	(4.827864e-06 2.148677e-06 -9.458318e-09)	(6.435540e-06 -1.048032e-06 2.464527e-10)	(-1.607676e-06 3.196709e-06 -9.704771e-09)
0.845698      	(5.026409e-06 1.964767e-06 -9.455272e-09)	(6.659977e-06 -1.210508e-06 2.447932e-10)	(-1.633568e-06 3.175275e-06 -9.700065e-09)
0.849864      	(4.594326e-06 2.259235e-06 -9.415377e-09)	(6.255151e-06 -8.960682e-07 2.419013e-10)	(-1.660825e-06 3.155303e-06 -9.657279e-09)
0.85403       	(4.582495e-06 2.094809e-06 -9.348444e-09)	(6.268641e-06 -1.041131e-06 2.392594e-10)	(-1.686146e-06 3.135940e-06 -9.587703e-09)
0.858196      	(4.682602e-06 1.999175e-06 -9.295977e-09)	(6.392996e-06 -1.118544e-06 2.366462e-10)	(-1.710394e-06 3.117718e-06 -9.532624e-09)
0.862362      	(4.547788e-06 1.763747e-06 -9.249582e-09)	(6.280436e-06 -1.334673e-06 2.337933e-10)	(-1.732648e-06 3.098420e-06 -9.483376e-09)
0.866528      	(4.385265e-06 2.062730e-06 -9.213048e-09)	(6.138111e-06 -1.017626e-06 2.310800e-10)	(-1.752846e-06 3.080356e-06 -9.444128e-09)
0.870694      	(4.494802e-06 1.997342e-06 -9.153207e-09)	(6.267250e-06 -1.066060e-06 2.273420e-10)	(-1.772448e-06 3.063401e-06 -9.380549e-09)
0.87486       	(4.541412e-06 1.900062e-06 -9.095912e-09)	(6.330069e-06 -1.145541e-06 2.237680e-10)	(-1.788656e-06 3.045603e-06 -9.319680e-09)