# Force       
# CofR        : 0.000000e+00 0.000000e+00 0.000000e+00
#
# Time        	total_x total_y total_z	pressure_x pressure_y pressure_z	viscous_x viscous_y viscous_z
0.00625       	-1.846584e-05 -1.842849e-04 6.164213e+01	-2.690612e-05 -2.052509e-04 6.123122e+01	8.440279e-06 2.096602e-05 4.109167e-01
0.0125        	3.985925e-06 -4.181744e-05 -6.663346e+00	-1.440180e-05 -7.409625e-05 -6.837647e+00	1.838772e-05 3.227881e-05 1.743011e-01
0.01875       	-1.853848e-05 -1.883916e-05 -6.374819e+00	-4.667411e-05 -5.471422e-05 -6.485653e+00	2.813563e-05 3.587506e-05 1.108345e-01
0.025         	3.973584e-05 1.628854e-05 -4.193984e-01	1.085782e-05 -1.850966e-05 -4.822753e-01	2.887801e-05 3.479819e-05 6.287692e-02
0.03125       	-2.278182e-05 -2.236561e-05 4.815371e-01	-5.009836e-05 -5.618635e-05 4.375082e-01	2.731655e-05 3.382074e-05 4.402887e-02
0.0375        	1.714633e-06 -1.845952e-06 -1.169939e-01	-2.371214e-05 -3.441825e-05 -1.514285e-01	2.542677e-05 3.257229e-05 3.443463e-02
0.04375       	2.822229e-06 -2.297029e-06 -9.114730e-02	-1.916099e-05 -3.211444e-05 -1.174974e-01	2.198322e-05 2.981741e-05 2.635009e-02
0.05          	2.461256e-06 2.685858e-07 -7.911560e-02	-1.622000e-05 -2.676870e-05 -9.870730e-02	1.868126e-05 2.703728e-05 1.959169e-02
0.05625       	-7.853181e-07 -3.566848e-06 -8.552733e-02	-1.726080e-05 -2.845460e-05 -9.966836e-02	1.647548e-05 2.488775e-05 1.414103e-02
0.0625        	-9.041476e-08 -3.742651e-06 -1.073629e-01	-1.483536e-05 -2.688931e-05 -1.169859e-01	1.474495e-05 2.314665e-05 9.623004e-03
0.06875       	3.469953e-06 6.995905e-07 -1.253255e-01	-1.007139e-05 -2.094950e-05 -1.311256e-01	1.354134e-05 2.164909e-05 5.800147e-03
0.075         	-8.308150e-07 -6.602552e-06 -1.469059e-01	-1.355675e-05 -2.731644e-05 -1.494793e-01	1.272593e-05 2.071389e-05 2.573409e-03
0.08125       	2.129762e-06 -4.352825e-06 -1.647880e-01	-1.000108e-05 -2.434468e-05 -1.646420e-01	1.213084e-05 1.999185e-05 -1.459604e-04
0.0875        	6.781045e-07 -5.156944e-06 -1.804181e-01	-1.099056e-05 -2.434718e-05 -1.779725e-01	1.166866e-05 1.919023e-05 -2.445522e-03
0.09375       	3.842670e-07 -6.891442e-06 -1.955541e-01	-1.095021e-05 -2.525748e-05 -1.911665e-01	1.133448e-05 1.836604e-05 -4.387550e-03
0.1           	1.669294e-06 -5.207082e-06 -2.098750e-01	-9.390013e-06 -2.279249e-05 -2.038474e-01	1.105931e-05 1.758541e-05 -6.027661e-03
0.10625       	-8.899803e-07 -8.825545e-06 -2.222889e-01	-1.173298e-05 -2.565223e-05 -2.148777e-01	1.084300e-05 1.682669e-05 -7.411160e-03
0.1125        	-1.546563e-07 -8.388795e-06 -2.307837e-01	-1.081605e-05 -2.448857e-05 -2.221991e-01	1.066139e-05 1.609978e-05 -8.584655e-03
0.11875       	-5.194065e-07 -9.720150e-06 -2.408284e-01	-1.102246e-05 -2.513223e-05 -2.312522e-01	1.050305e-05 1.541208e-05 -9.576228e-03
0.125         	-4.004072e-07 -1.035942e-05 -2.493795e-01	-1.076865e-05 -2.512070e-05 -2.389679e-01	1.036824e-05 1.476127e-05 -1.041152e-02
0.13125       	-1.163131e-06 -1.134244e-05 -2.571419e-01	-1.136680e-05 -2.548339e-05 -2.460320e-01	1.020367e-05 1.414095e-05 -1.110992e-02
0.1375        	-1.159788e-06 -1.228123e-05 -2.638706e-01	-1.118443e-05 -2.580119e-05 -2.521853e-01	1.002464e-05 1.351996e-05 -1.168531e-02
0.14375       	-1.945875e-06 -1.275847e-05 -2.682740e-01	-1.175289e-05 -2.568362e-05 -2.560950e-01	9.807011e-06 1.292516e-05 -1.217909e-02
0.15          	-1.746223e-06 -1.439391e-05 -2.736106e-01	-1.128162e-05 -2.678810e-05 -2.610115e-01	9.535393e-06 1.239420e-05 -1.259906e-02
0.15625       	-1.752620e-06 -1.321603e-05 -2.788980e-01	-1.107940e-05 -2.511173e-05 -2.659518e-01	9.326775e-06 1.189570e-05 -1.294611e-02
0.1625        	-1.615973e-06 -1.345136e-05 -2.833895e-01	-1.070831e-05 -2.484237e-05 -2.701602e-01	9.092342e-06 1.139101e-05 -1.322933e-02
0.16875       	-2.217151e-06 -1.426611e-05 -2.880075e-01	-1.102473e-05 -2.515194e-05 -2.745589e-01	8.807578e-06 1.088583e-05 -1.344853e-02
0.175         	-1.671152e-06 -1.441297e-05 -2.914975e-01	-1.011824e-05 -2.478843e-05 -2.778839e-01	8.447085e-06 1.037546e-05 -1.361358e-02
0.18125       	-1.827189e-06 -1.455093e-05 -2.944897e-01	-9.898359e-06 -2.444985e-05 -2.807537e-01	8.071170e-06 9.898920e-06 -1.373600e-02
0.1875        	-1.960831e-06 -1.432879e-05 -2.984468e-01	-9.576003e-06 -2.368211e-05 -2.846293e-01	7.615172e-06 9.353323e-06 -1.381747e-02
0.19375       	-2.780691e-06 -1.550953e-05 -3.018906e-01	-1.005621e-05 -2.455565e-05 -2.880276e-01	7.275521e-06 9.046120e-06 -1.386294e-02
0.2           	-1.982724e-06 -1.437161e-05 -3.054422e-01	-8.910651e-06 -2.302198e-05 -2.915660e-01	6.927928e-06 8.650377e-06 -1.387621e-02
0.20625       	-2.603107e-06 -1.427918e-05 -3.087155e-01	-9.131458e-06 -2.245033e-05 -2.948556e-01	6.528351e-06 8.171153e-06 -1.385991e-02
0.2125        	-1.975457e-06 -1.401241e-05 -3.122558e-01	-8.119398e-06 -2.171585e-05 -2.984383e-01	6.143941e-06 7.703436e-06 -1.381751e-02
0.21875       	-2.618839e-06 -1.437598e-05 -3.152580e-01	-8.440551e-06 -2.166075e-05 -3.015056e-01	5.821712e-06 7.284770e-06 -1.375248e-02
0.225         	-2.473269e-06 -1.358873e-05 -3.178869e-01	-8.044995e-06 -2.051628e-05 -3.042182e-01	5.571727e-06 6.927549e-06 -1.366868e-02
0.23125       	-2.704976e-06 -1.332541e-05 -3.208344e-01	-8.054715e-06 -1.990737e-05 -3.072672e-01	5.349739e-06 6.581957e-06 -1.356713e-02
0.2375        	-2.338198e-06 -1.352645e-05 -3.242297e-01	-7.389109e-06 -1.974603e-05 -3.107798e-01	5.050911e-06 6.219575e-06 -1.344988e-02
0.24375       	-2.230057e-06 -1.302442e-05 -3.275142e-01	-6.978714e-06 -1.888757e-05 -3.141945e-01	4.748657e-06 5.863154e-06 -1.331971e-02
0.25          	-2.078077e-06 -1.272892e-05 -3.308218e-01	-6.562879e-06 -1.825425e-05 -3.176454e-01	4.484802e-06 5.525331e-06 -1.317642e-02
0.25625       	-2.153301e-06 -1.238063e-05 -3.342144e-01	-6.388224e-06 -1.759849e-05 -3.211927e-01	4.234922e-06 5.217864e-06 -1.302173e-02
0.2625        	-2.150837e-06 -1.267485e-05 -3.374136e-01	-6.134391e-06 -1.758194e-05 -3.245560e-01	3.983553e-06 4.907089e-06 -1.285762e-02
0.26875       	-1.888048e-06 -1.198522e-05 -3.408838e-01	-5.637094e-06 -1.659767e-05 -3.281982e-01	3.749046e-06 4.612453e-06 -1.268567e-02
0.275         	-1.670906e-06 -1.147529e-05 -3.443469e-01	-5.208322e-06 -1.581192e-05 -3.318381e-01	3.537416e-06 4.336628e-06 -1.250874e-02
0.28125       	-1.620919e-06 -1.131498e-05 -3.477662e-01	-4.960703e-06 -1.537519e-05 -3.354391e-01	3.339784e-06 4.060214e-06 -1.232710e-02
0.2875        	-1.040247e-06 -1.046317e-05 -3.509951e-01	-4.208241e-06 -1.426629e-05 -3.388567e-01	3.167994e-06 3.803127e-06 -1.213833e-02
0.29375       	-1.039787e-06 -1.035350e-05 -3.545681e-01	-4.040458e-06 -1.390164e-05 -3.426235e-01	3.000670e-06 3.548135e-06 -1.194464e-02
0.3           	-9.541204e-07 -1.025403e-05 -3.582404e-01	-3.791744e-06 -1.354889e-05 -3.464915e-01	2.837624e-06 3.294859e-06 -1.174890e-02
0.30625       	-7.209713e-07 -9.791606e-06 -3.619428e-01	-3.388896e-06 -1.283531e-05 -3.503918e-01	2.667925e-06 3.043709e-06 -1.155102e-02
0.3125        	-5.682345e-07 -9.867636e-06 -3.657121e-01	-3.071311e-06 -1.268087e-05 -3.543618e-01	2.503077e-06 2.813229e-06 -1.135023e-02
0.31875       	-3.922995e-07 -9.369861e-06 -3.696937e-01	-2.749112e-06 -1.196760e-05 -3.585457e-01	2.356812e-06 2.597736e-06 -1.114799e-02
0.325         	6.754682e-08 -9.347841e-06 -3.736074e-01	-2.093643e-06 -1.171676e-05 -3.626620e-01	2.161189e-06 2.368914e-06 -1.094532e-02
0.33125       	8.480220e-08 -9.181649e-06 -3.776650e-01	-1.920476e-06 -1.133947e-05 -3.669218e-01	2.005278e-06 2.157823e-06 -1.074320e-02
0.3375        	6.029044e-07 -8.945897e-06 -3.816897e-01	-1.237697e-06 -1.090013e-05 -3.711475e-01	1.840601e-06 1.954231e-06 -1.054211e-02
0.34375       	6.648966e-07 -8.911633e-06 -3.857975e-01	-1.042143e-06 -1.067770e-05 -3.754549e-01	1.707040e-06 1.766065e-06 -1.034255e-02
0.35          	7.882251e-07 -8.828318e-06 -3.898249e-01	-8.076448e-07 -1.042101e-05 -3.796799e-01	1.595870e-06 1.592691e-06 -1.014496e-02
0.35625       	1.280145e-06 -8.699566e-06 -3.940432e-01	-2.058887e-07 -1.012462e-05 -3.840934e-01	1.486033e-06 1.425052e-06 -9.949740e-03
0.3625        	1.452098e-06 -8.770941e-06 -3.981949e-01	8.283634e-08 -1.003080e-05 -3.884382e-01	1.369262e-06 1.259856e-06 -9.756719e-03
0.36875       	1.783139e-06 -8.805958e-06 -4.023979e-01	5.364570e-07 -9.901637e-06 -3.928315e-01	1.246682e-06 1.095678e-06 -9.566406e-03
0.375         	1.943084e-06 -8.572571e-06 -4.067109e-01	8.274554e-07 -9.513729e-06 -3.973314e-01	1.115629e-06 9.411575e-07 -9.379436e-03
0.38125       	1.135609e-06 -9.414295e-06 -4.110869e-01	1.263734e-07 -1.023429e-05 -4.018901e-01	1.009235e-06 8.199935e-07 -9.196809e-03
0.3875        	6.232699e-07 -1.009661e-05 -4.154373e-01	-3.215897e-07 -1.085187e-05 -4.064191e-01	9.448596e-07 7.552634e-07 -9.018151e-03
0.39375       	1.816710e-06 -9.744995e-06 -4.198007e-01	9.408730e-07 -1.043503e-05 -4.109576e-01	8.758374e-07 6.900306e-07 -8.843099e-03
0.4           	1.563668e-06 -9.885897e-06 -4.242495e-01	7.440648e-07 -1.052257e-05 -4.155773e-01	8.196031e-07 6.366704e-07 -8.672157e-03
0.40625       	1.960259e-06 -9.692295e-06 -4.286408e-01	1.217221e-06 -1.024309e-05 -4.201343e-01	7.430387e-07 5.507917e-07 -8.506449e-03
0.4125        	1.967011e-06 -9.690777e-06 -4.330717e-01	1.308281e-06 -1.014980e-05 -4.247248e-01	6.587304e-07 4.590214e-07 -8.346904e-03
0.41875       	1.531075e-06 -1.085347e-05 -4.374838e-01	9.227209e-07 -1.125866e-05 -4.292903e-01	6.083541e-07 4.051850e-07 -8.193488e-03
0.425         	1.771598e-06 -1.097519e-05 -4.419030e-01	1.207455e-06 -1.133199e-05 -4.338584e-01	5.641434e-07 3.567916e-07 -8.044575e-03
0.43125       	2.679232e-06 -9.842157e-06 -4.464030e-01	2.188972e-06 -1.011911e-05 -4.385021e-01	4.902599e-07 2.769505e-07 -7.900955e-03
0.4375        	3.193638e-06 -9.578920e-06 -4.507837e-01	2.812907e-06 -9.749502e-06 -4.430215e-01	3.807302e-07 1.705815e-07 -7.762134e-03
0.44375       	2.829905e-06 -9.775953e-06 -4.552505e-01	2.572031e-06 -9.861054e-06 -4.476225e-01	2.578735e-07 8.510057e-08 -7.628013e-03
0.45          	2.713787e-06 -1.037443e-05 -4.596664e-01	2.556540e-06 -1.040266e-05 -4.521684e-01	1.572477e-07 2.823671e-08 -7.497944e-03
0.45625       	1.632814e-06 -1.171622e-05 -4.640600e-01	1.519508e-06 -1.174328e-05 -4.566875e-01	1.133066e-07 2.705742e-08 -7.372558e-03
0.4625        	2.434010e-06 -1.115946e-05 -4.684228e-01	2.339866e-06 -1.118298e-05 -4.611702e-01	9.414380e-08 2.352270e-08 -7.252521e-03
0.46875       	2.367381e-06 -1.124433e-05 -4.727322e-01	2.303819e-06 -1.126319e-05 -4.655951e-01	6.356170e-08 1.885381e-08 -7.137185e-03
0.475         	2.467642e-06 -1.090363e-05 -4.770604e-01	2.442863e-06 -1.092205e-05 -4.700340e-01	2.477882e-08 1.841434e-08 -7.026368e-03
0.48125       	2.328933e-06 -1.108075e-05 -4.813306e-01	2.342898e-06 -1.111223e-05 -4.744102e-01	-1.396525e-08 3.148271e-08 -6.920495e-03
0.4875        	2.329606e-06 -1.171125e-05 -4.855881e-01	2.381893e-06 -1.176457e-05 -4.787690e-01	-5.228777e-08 5.331809e-08 -6.819090e-03
0.49375       	2.173587e-06 -1.186647e-05 -4.897660e-01	2.276126e-06 -1.195869e-05 -4.830440e-01	-1.025388e-07 9.221712e-08 -6.722007e-03
0.5           	2.100633e-06 -1.205941e-05 -4.938825e-01	2.257167e-06 -1.219944e-05 -4.872532e-01	-1.565333e-07 1.400271e-07 -6.629269e-03
0.50625       	1.775071e-06 -1.183714e-05 -4.979852e-01	1.976900e-06 -1.203680e-05 -4.914449e-01	-2.018288e-07 1.996575e-07 -6.540315e-03
0.5125        	1.824213e-06 -1.191414e-05 -5.019966e-01	2.057340e-06 -1.218582e-05 -4.955421e-01	-2.331268e-07 2.716822e-07 -6.454430e-03
0.51875       	1.621187e-06 -1.252097e-05 -5.059972e-01	1.870729e-06 -1.286850e-05 -4.996266e-01	-2.495418e-07 3.475322e-07 -6.370583e-03
0.525         	1.697459e-07 -1.335075e-05 -5.099472e-01	3.807078e-07 -1.382486e-05 -5.036585e-01	-2.109620e-07 4.741129e-07 -6.288700e-03
0.53125       	4.913561e-07 -1.279086e-05 -5.137174e-01	6.573357e-07 -1.341781e-05 -5.075021e-01	-1.659796e-07 6.269559e-07 -6.215293e-03
0.5375        	4.916953e-07 -1.273410e-05 -5.174912e-01	6.289621e-07 -1.350428e-05 -5.113390e-01	-1.372668e-07 7.701780e-07 -6.152204e-03
0.54375       	6.370527e-07 -1.230145e-05 -5.212015e-01	7.686979e-07 -1.317853e-05 -5.151072e-01	-1.316451e-07 8.770835e-07 -6.094234e-03
0.55          	9.752115e-07 -1.200683e-05 -5.248381e-01	1.142958e-06 -1.295590e-05 -5.188002e-01	-1.677467e-07 9.490628e-07 -6.037913e-03
0.55625       	9.691978e-07 -1.189581e-05 -5.283631e-01	1.195704e-06 -1.291524e-05 -5.223799e-01	-2.265060e-07 1.019437e-06 -5.983179e-03
0.5625        	8.917957e-07 -1.190197e-05 -5.318445e-01	1.155805e-06 -1.300892e-05 -5.259128e-01	-2.640090e-07 1.106951e-06 -5.931661e-03
0.56875       	3.927116e-07 -1.208398e-05 -5.352859e-01	6.855910e-07 -1.328505e-05 -5.294019e-01	-2.928794e-07 1.201075e-06 -5.884030e-03
0.575         	2.724621e-07 -1.183809e-05 -5.386152e-01	5.905831e-07 -1.314658e-05 -5.327760e-01	-3.181211e-07 1.308486e-06 -5.839261e-03
0.58125       	-1.480815e-07 -1.206059e-05 -5.418082e-01	1.829787e-07 -1.349424e-05 -5.360117e-01	-3.310603e-07 1.433650e-06 -5.796525e-03
0.5875        	-3.876741e-07 -1.194504e-05 -5.450156e-01	-6.916395e-08 -1.351318e-05 -5.392601e-01	-3.185102e-07 1.568142e-06 -5.755472e-03
0.59375       	-4.889376e-07 -1.183134e-05 -5.480930e-01	-1.668477e-07 -1.353908e-05 -5.423771e-01	-3.220899e-07 1.707738e-06 -5.715895e-03
0.6           	-8.696552e-07 -1.169783e-05 -5.510385e-01	-5.475154e-07 -1.354943e-05 -5.453610e-01	-3.221398e-07 1.851594e-06 -5.677507e-03
0.60625       	-9.244487e-07 -1.195358e-05 -5.539360e-01	-6.140113e-07 -1.394758e-05 -5.482959e-01	-3.104374e-07 1.993994e-06 -5.640032e-03
0.6125        	-1.167432e-06 -1.157508e-05 -5.567414e-01	-8.591986e-07 -1.372211e-05 -5.511379e-01	-3.082333e-07 2.147031e-06 -5.603505e-03
0.61875       	-1.517853e-06 -1.165960e-05 -5.594471e-01	-1.207718e-06 -1.396102e-05 -5.538796e-01	-3.101345e-07 2.301413e-06 -5.567597e-03
0.625         	-1.656808e-06 -1.144734e-05 -5.620564e-01	-1.345901e-06 -1.390582e-05 -5.565241e-01	-3.109066e-07 2.458486e-06 -5.532328e-03
0.63125       	-1.938893e-06 -1.167714e-05 -5.645625e-01	-1.638820e-06 -1.428825e-05 -5.590651e-01	-3.000734e-07 2.611105e-06 -5.497411e-03
0.6375        	-2.296123e-06 -1.082793e-05 -5.669549e-01	-2.002863e-06 -1.361374e-05 -5.614921e-01	-2.932596e-07 2.785808e-06 -5.462733e-03
0.64375       	-2.439365e-06 -1.104187e-05 -5.692689e-01	-2.162717e-06 -1.399023e-05 -5.638407e-01	-2.766480e-07 2.948361e-06 -5.428130e-03
0.65          	-2.366687e-06 -1.066542e-05 -5.714744e-01	-2.111904e-06 -1.375438e-05 -5.660811e-01	-2.547830e-07 3.088958e-06 -5.393324e-03
0.65625       	-2.337691e-06 -1.049520e-05 -5.735237e-01	-2.081944e-06 -1.371020e-05 -5.681657e-01	-2.557474e-07 3.214998e-06 -5.358031e-03
0.6625        	-2.544194e-06 -1.034306e-05 -5.754853e-01	-2.275924e-06 -1.369251e-05 -5.701631e-01	-2.682700e-07 3.349448e-06 -5.322216e-03
0.66875       	-2.890933e-06 -9.596378e-06 -5.773179e-01	-2.623991e-06 -1.310728e-05 -5.720322e-01	-2.669423e-07 3.510899e-06 -5.285653e-03
0.675         	-2.852699e-06 -9.871194e-06 -5.790661e-01	-2.598341e-06 -1.354291e-05 -5.738181e-01	-2.543582e-07 3.671717e-06 -5.247995e-03
0.68125       	-3.247534e-06 -9.482150e-06 -5.806364e-01	-3.010864e-06 -1.331778e-05 -5.754270e-01	-2.366703e-07 3.835628e-06 -5.209422e-03
0.6875        	-3.347989e-06 -9.344783e-06 -5.820764e-01	-3.122112e-06 -1.335229e-05 -5.769071e-01	-2.258775e-07 4.007507e-06 -5.169309e-03
0.69375       	-3.504199e-06 -8.820331e-06 -5.834892e-01	-3.295659e-06 -1.299145e-05 -5.783616e-01	-2.085399e-07 4.171122e-06 -5.127666e-03
0.7           	-3.741540e-06 -8.524970e-06 -5.847007e-01	-3.556039e-06 -1.285999e-05 -5.796163e-01	-1.855018e-07 4.335021e-06 -5.084385e-03
0.70625       	-3.954747e-06 -8.233022e-06 -5.857599e-01	-3.797086e-06 -1.274750e-05 -5.807206e-01	-1.576608e-07 4.514478e-06 -5.039246e-03
0.7125        	-3.930846e-06 -8.109341e-06 -5.866766e-01	-3.801807e-06 -1.280032e-05 -5.816843e-01	-1.290384e-07 4.690976e-06 -4.992294e-03
0.71875       	-3.892309e-06 -7.295110e-06 -5.874118e-01	-3.797726e-06 -1.217433e-05 -5.824683e-01	-9.458374e-08 4.879225e-06 -4.943502e-03
0.725         	-4.256211e-06 -7.409305e-06 -5.879839e-01	-4.197643e-06 -1.246784e-05 -5.830909e-01	-5.856817e-08 5.058540e-06 -4.892955e-03
0.73125       	-4.563907e-06 -6.369459e-06 -5.883437e-01	-4.542928e-06 -1.161765e-05 -5.835031e-01	-2.097938e-08 5.248195e-06 -4.840525e-03
0.7375        	-4.545889e-06 -6.597635e-06 -5.890997e-01	-4.569722e-06 -1.201397e-05 -5.843122e-01	2.383328e-08 5.416334e-06 -4.787466e-03
0.74375       	-1.594309e-06 -2.938311e-06 -5.893888e-01	-1.536356e-06 -8.343700e-06 -5.846550e-01	-5.795295e-08 5.405389e-06 -4.733808e-03
0.75          	-9.153005e-07 -1.603184e-06 -5.894463e-01	-6.586515e-07 -6.890735e-06 -5.847675e-01	-2.566490e-07 5.287551e-06 -4.678722e-03
0.75625       	-3.515283e-06 -4.009064e-06 -5.893600e-01	-3.176749e-06 -9.284063e-06 -5.847379e-01	-3.385344e-07 5.274999e-06 -4.622124e-03
0.7625        	-4.195824e-06 -4.306764e-06 -5.891011e-01	-3.878704e-06 -9.675234e-06 -5.845366e-01	-3.171193e-07 5.368470e-06 -4.564551e-03
0.76875       	-3.747670e-06 -2.615458e-06 -5.885778e-01	-3.425831e-06 -8.086658e-06 -5.840718e-01	-3.218396e-07 5.471200e-06 -4.506042e-03
0.775         	-4.355826e-06 -2.583092e-06 -5.879277e-01	-4.006253e-06 -8.152633e-06 -5.834804e-01	-3.495732e-07 5.569541e-06 -4.447336e-03
0.78125       	-4.691726e-06 -2.344011e-06 -5.871505e-01	-4.353189e-06 -8.000064e-06 -5.827613e-01	-3.385369e-07 5.656053e-06 -4.389213e-03
0.7875        	-4.966531e-06 -1.982268e-06 -5.862924e-01	-4.680178e-06 -7.728565e-06 -5.819599e-01	-2.863524e-07 5.746297e-06 -4.332459e-03
0.79375       	-4.663356e-06 -1.722243e-06 -5.851707e-01	-4.436601e-06 -7.556470e-06 -5.808934e-01	-2.267553e-07 5.834227e-06 -4.277362e-03
0.8           	-5.094536e-06 -1.319598e-06 -5.837380e-01	-4.987367e-06 -7.240838e-06 -5.795141e-01	-1.071690e-07 5.921241e-06 -4.223877e-03
0.80625       	-5.116960e-06 -6.853192e-07 -5.822230e-01	-5.137058e-06 -6.716940e-06 -5.780503e-01	2.009750e-08 6.031621e-06 -4.172719e-03
0.8125        	-5.312671e-06 -3.370348e-07 -5.806483e-01	-5.443578e-06 -6.461510e-06 -5.765232e-01	1.309072e-07 6.124475e-06 -4.125104e-03
0.81875       	-5.477313e-06 1.071471e-07 -5.789085e-01	-5.728365e-06 -6.096438e-06 -5.748271e-01	2.510521e-07 6.203585e-06 -4.081450e-03
0.825         	-5.544229e-06 2.958556e-07 -5.769379e-01	-5.922651e-06 -5.973763e-06 -5.728963e-01	3.784217e-07 6.269619e-06 -4.041613e-03
0.83125       	-5.517538e-06 6.818522e-07 -5.748340e-01	-6.022412e-06 -5.642119e-06 -5.708279e-01	5.048740e-07 6.323971e-06 -4.006093e-03
0.8375        	-5.611908e-06 1.529500e-06 -5.726185e-01	-6.245681e-06 -4.853075e-06 -5.686425e-01	6.337737e-07 6.382575e-06 -3.976060e-03
0.84375       	-5.548542e-06 1.809071e-06 -5.702897e-01	-6.315171e-06 -4.629650e-06 -5.663374e-01	7.666290e-07 6.438721e-06 -3.952319e-03
0.85          	-5.537538e-06 2.295557e-06 -5.678106e-01	-6.438239e-06 -4.188825e-06 -5.638753e-01	9.007011e-07 6.484382e-06 -3.935353e-03
0.85625       	-5.607614e-06 3.039571e-06 -5.651604e-01	-6.639110e-06 -3.487800e-06 -5.612351e-01	1.031496e-06 6.527371e-06 -3.925334e-03
0.8625        	-5.400703e-06 3.159174e-06 -5.625143e-01	-6.554345e-06 -3.396316e-06 -5.585911e-01	1.153642e-06 6.555490e-06 -3.923181e-03
0.86875       	-5.413619e-06 3.344954e-06 -5.597115e-01	-6.679355e-06 -3.231237e-06 -5.557819e-01	1.265736e-06 6.576191e-06 -3.929524e-03
0.875         	-5.647206e-06 4.125864e-06 -5.567829e-01	-7.034275e-06 -2.470095e-06 -5.528383e-01	1.387069e-06 6.595959e-06 -3.944552e-03
0.88125       	-7.117779e-06 3.750189e-06 -5.538259e-01	-8.697873e-06 -2.896665e-06 -5.498575e-01	1.580094e-06 6.646854e-06 -3.968451e-03
0.8875        	-5.490519e-06 4.708919e-06 -5.507908e-01	-7.236183e-06 -1.968117e-06 -5.467891e-01	1.745664e-06 6.677036e-06 -4.001721e-03
0.89375       	-5.998276e-06 5.001102e-06 -5.477199e-01	-7.896202e-06 -1.705920e-06 -5.436747e-01	1.897926e-06 6.707021e-06 -4.045146e-03
0.9           	-6.271484e-06 4.743398e-06 -5.445895e-01	-8.347096e-06 -2.029323e-06 -5.404908e-01	2.075611e-06 6.772721e-06 -4.098661e-03
0.90625       	-6.312353e-06 5.573028e-06 -5.414215e-01	-8.583848e-06 -1.252035e-06 -5.372595e-01	2.271495e-06 6.825063e-06 -4.161991e-03
0.9125        	-5.982922e-06 6.321146e-06 -5.382308e-01	-8.424984e-06 -5.183357e-07 -5.339957e-01	2.442062e-06 6.839482e-06 -4.235116e-03
0.91875       	-6.047827e-06 6.515169e-06 -5.350222e-01	-8.654587e-06 -3.268942e-07 -5.307044e-01	2.606760e-06 6.842063e-06 -4.317785e-03
0.925         	-5.716323e-06 6.854211e-06 -5.318223e-01	-8.422051e-06 7.215705e-08 -5.274124e-01	2.705728e-06 6.782053e-06 -4.409878e-03
0.93125       	-4.825800e-06 8.054198e-06 -5.286456e-01	-7.581109e-06 1.342577e-06 -5.241337e-01	2.755309e-06 6.711622e-06 -4.511826e-03
0.9375        	-5.859095e-06 7.206514e-06 -5.254862e-01	-8.659493e-06 5.121261e-07 -5.208629e-01	2.800399e-06 6.694388e-06 -4.623336e-03
0.94375       	-6.197057e-06 6.887056e-06 -5.222919e-01	-9.112595e-06 1.631553e-07 -5.175489e-01	2.915537e-06 6.723901e-06 -4.743020e-03
0.95          	-5.906298e-06 7.343487e-06 -5.191064e-01	-8.911067e-06 5.996209e-07 -5.142367e-01	3.004769e-06 6.743866e-06 -4.869708e-03
0.95625       	-6.405909e-06 6.806922e-06 -5.159590e-01	-9.519997e-06 3.893417e-08 -5.109564e-01	3.114088e-06 6.767987e-06 -5.002599e-03
0.9625        	-5.512035e-06 7.870514e-06 -5.128320e-01	-8.675163e-06 1.098075e-06 -5.076911e-01	3.163128e-06 6.772439e-06 -5.140891e-03
0.96875       	-5.546827e-06 8.014627e-06 -5.096952e-01	-8.738522e-06 1.236235e-06 -5.044118e-01	3.191695e-06 6.778392e-06 -5.283343e-03
0.975         	-5.665581e-06 7.524917e-06 -5.066043e-01	-8.884953e-06 7.491058e-07 -5.011754e-01	3.219371e-06 6.775811e-06 -5.428879e-03
0.98125       	-5.569113e-06 7.761273e-06 -5.035039e-01	-8.795741e-06 9.903890e-07 -4.979276e-01	3.226628e-06 6.770884e-06 -5.576288e-03
0.9875        	-5.394039e-06 7.777621e-06 -5.004409e-01	-8.636967e-06 1.005239e-06 -4.947164e-01	3.242928e-06 6.772382e-06 -5.724497e-03
0.99375       	-5.262071e-06 7.866656e-06 -4.973696e-01	-8.514687e-06 1.103029e-06 -4.914972e-01	3.252616e-06 6.763627e-06 -5.872361e-03
1             	-5.225737e-06 7.759300e-06 -4.943024e-01	-8.486228e-06 1.029300e-06 -4.882835e-01	3.260491e-06 6.730001e-06 -6.018871e-03
1.00625       	-5.120531e-06 7.678665e-06 -4.912448e-01	-8.380799e-06 9.767583e-07 -4.850816e-01	3.260268e-06 6.701907e-06 -6.163223e-03
1.0125        	-5.249885e-06 7.201841e-06 -4.881469e-01	-8.502818e-06 5.147748e-07 -4.818426e-01	3.252933e-06 6.687067e-06 -6.304315e-03
1.01875       	-5.288271e-06 7.191979e-06 -4.850539e-01	-8.539778e-06 5.170829e-07 -4.786123e-01	3.251507e-06 6.674896e-06 -6.441577e-03
1.025         	-5.110878e-06 7.123314e-06 -4.820420e-01	-8.350481e-06 4.656983e-07 -4.754669e-01	3.239603e-06 6.657616e-06 -6.575147e-03
1.03125       	-5.175704e-06 6.664956e-06 -4.789416e-01	-8.406934e-06 3.239816e-08 -4.722377e-01	3.231230e-06 6.632557e-06 -6.703896e-03
1.0375        	-5.062831e-06 6.798621e-06 -4.758705e-01	-8.283161e-06 1.875429e-07 -4.690431e-01	3.220330e-06 6.611078e-06 -6.827350e-03
1.04375       	-5.100602e-06 6.200183e-06 -4.728303e-01	-8.307269e-06 -3.935748e-07 -4.658847e-01	3.206668e-06 6.593758e-06 -6.945586e-03
1.05          	-4.840308e-06 6.231576e-06 -4.696655e-01	-8.028437e-06 -3.352045e-07 -4.626078e-01	3.188129e-06 6.566780e-06 -7.057770e-03
1.05625       	-5.061783e-06 5.906322e-06 -4.665042e-01	-8.239508e-06 -6.346121e-07 -4.593405e-01	3.177725e-06 6.540934e-06 -7.163689e-03
1.0625        	-5.128213e-06 5.445232e-06 -4.633908e-01	-8.299893e-06 -1.061811e-06 -4.561265e-01	3.171681e-06 6.507044e-06 -7.264289e-03
1.06875       	-4.852608e-06 5.500397e-06 -4.602302e-01	-8.011452e-06 -9.746219e-07 -4.528710e-01	3.158844e-06 6.475019e-06 -7.359211e-03
1.075         	-4.789775e-06 4.845426e-06 -4.570255e-01	-7.926748e-06 -1.581742e-06 -4.495779e-01	3.136973e-06 6.427168e-06 -7.447598e-03
1.08125       	-4.975491e-06 4.474149e-06 -4.538568e-01	-8.094526e-06 -1.897106e-06 -4.463268e-01	3.119036e-06 6.371255e-06 -7.529962e-03
1.0875        	-4.834182e-06 4.298882e-06 -4.506895e-01	-7.940339e-06 -2.028809e-06 -4.430827e-01	3.106157e-06 6.327691e-06 -7.606789e-03
1.09375       	-4.665396e-06 4.142103e-06 -4.474561e-01	-7.755305e-06 -2.141530e-06 -4.397785e-01	3.089909e-06 6.283634e-06 -7.677604e-03
1.1           	-4.575592e-06 3.966428e-06 -4.442324e-01	-7.651026e-06 -2.272685e-06 -4.364900e-01	3.075433e-06 6.239113e-06 -7.742408e-03
1.10625       	-4.586844e-06 3.644999e-06 -4.410361e-01	-7.647561e-06 -2.549455e-06 -4.332345e-01	3.060717e-06 6.194454e-06 -7.801580e-03
1.1125        	-4.527108e-06 3.042199e-06 -4.378332e-01	-7.573226e-06 -3.096676e-06 -4.299780e-01	3.046118e-06 6.138875e-06 -7.855141e-03
1.11875       	-4.495889e-06 3.127931e-06 -4.346279e-01	-7.527586e-06 -2.961912e-06 -4.267246e-01	3.031697e-06 6.089843e-06 -7.903291e-03
1.125         	-4.477731e-06 2.696402e-06 -4.313579e-01	-7.495686e-06 -3.344986e-06 -4.234122e-01	3.017956e-06 6.041387e-06 -7.945773e-03
1.13125       	-4.433852e-06 2.484854e-06 -4.281398e-01	-7.438385e-06 -3.506659e-06 -4.201570e-01	3.004533e-06 5.991513e-06 -7.982791e-03
1.1375        	-4.314518e-06 2.235690e-06 -4.249739e-01	-7.307713e-06 -3.706518e-06 -4.169595e-01	2.993194e-06 5.942208e-06 -8.014480e-03
1.14375       	-4.328587e-06 2.168207e-06 -4.217196e-01	-7.310910e-06 -3.732675e-06 -4.136791e-01	2.982323e-06 5.900882e-06 -8.040481e-03
1.15          	-4.314605e-06 1.914618e-06 -4.185482e-01	-7.284988e-06 -3.945636e-06 -4.104872e-01	2.970382e-06 5.860254e-06 -8.060995e-03
1.15625       	-4.185115e-06 1.287518e-06 -4.153025e-01	-7.146347e-06 -4.520932e-06 -4.072269e-01	2.961231e-06 5.808450e-06 -8.075654e-03
1.1625        	-4.199252e-06 1.552906e-06 -4.121117e-01	-7.150830e-06 -4.215669e-06 -4.040274e-01	2.951579e-06 5.768575e-06 -8.084308e-03
1.16875       	-4.166461e-06 9.487219e-07 -4.089229e-01	-7.107211e-06 -4.775508e-06 -4.008360e-01	2.940750e-06 5.724230e-06 -8.086923e-03
1.175         	-4.132535e-06 7.133604e-07 -4.057878e-01	-7.064458e-06 -4.966231e-06 -3.977043e-01	2.931923e-06 5.679591e-06 -8.083522e-03
1.18125       	-4.156792e-06 6.081153e-07 -4.025103e-01	-7.080019e-06 -5.033668e-06 -3.944368e-01	2.923226e-06 5.641783e-06 -8.073547e-03
1.1875        	-3.909248e-06 1.725505e-07 -3.993472e-01	-6.827709e-06 -5.426089e-06 -3.912901e-01	2.918461e-06 5.598640e-06 -8.057151e-03
1.19375       	-3.971932e-06 3.660668e-07 -3.961592e-01	-6.886403e-06 -5.203077e-06 -3.881249e-01	2.914471e-06 5.569144e-06 -8.034307e-03
1.2           	-4.047078e-06 3.395758e-08 -3.929155e-01	-6.953692e-06 -5.505468e-06 -3.849109e-01	2.906614e-06 5.539425e-06 -8.004618e-03
1.20625       	-3.980553e-06 -4.187590e-09 -3.898751e-01	-6.880716e-06 -5.515072e-06 -3.819063e-01	2.900163e-06 5.510885e-06 -7.968775e-03
1.2125        	-3.854193e-06 -3.230170e-07 -3.865314e-01	-6.752038e-06 -5.803597e-06 -3.786055e-01	2.897845e-06 5.480580e-06 -7.925941e-03
1.21875       	-3.935142e-06 -7.732826e-07 -3.833918e-01	-6.829500e-06 -6.215683e-06 -3.755153e-01	2.894358e-06 5.442400e-06 -7.876545e-03
1.225         	-3.851991e-06 -5.903724e-07 -3.802671e-01	-6.743136e-06 -6.005884e-06 -3.724461e-01	2.891145e-06 5.415512e-06 -7.821070e-03
1.23125       	-3.859346e-06 -8.503210e-07 -3.770097e-01	-6.749385e-06 -6.240450e-06 -3.692508e-01	2.890039e-06 5.390129e-06 -7.758875e-03
1.2375        	-3.888476e-06 -1.213164e-06 -3.738619e-01	-6.776906e-06 -6.571908e-06 -3.661715e-01	2.888430e-06 5.358744e-06 -7.690379e-03
1.24375       	-3.815427e-06 -1.080874e-06 -3.707708e-01	-6.702004e-06 -6.414477e-06 -3.631546e-01	2.886577e-06 5.333603e-06 -7.616210e-03
1.25          	-3.819246e-06 -1.428482e-06 -3.674535e-01	-6.697961e-06 -6.732616e-06 -3.599178e-01	2.878715e-06 5.304134e-06 -7.535690e-03
1.25625       	-3.669854e-06 -1.627180e-06 -3.642337e-01	-6.544494e-06 -6.900930e-06 -3.567846e-01	2.874640e-06 5.273749e-06 -7.449102e-03
1.2625        	-3.854053e-06 -1.871936e-06 -3.612116e-01	-6.727711e-06 -7.117910e-06 -3.538540e-01	2.873659e-06 5.245974e-06 -7.357581e-03
1.26875       	-3.714799e-06 -1.704724e-06 -3.579738e-01	-6.592516e-06 -6.932939e-06 -3.507130e-01	2.877717e-06 5.228215e-06 -7.260830e-03
1.275         	-3.554508e-06 -1.835722e-06 -3.547506e-01	-6.427210e-06 -7.039005e-06 -3.475921e-01	2.872702e-06 5.203283e-06 -7.158573e-03
1.28125       	-3.432137e-06 -1.952872e-06 -3.515951e-01	-6.286753e-06 -7.117770e-06 -3.445437e-01	2.854616e-06 5.164899e-06 -7.051420e-03
1.2875        	-3.539697e-06 -2.118961e-06 -3.485140e-01	-6.387416e-06 -7.250597e-06 -3.415740e-01	2.847719e-06 5.131637e-06 -6.940005e-03
1.29375       	-3.492759e-06 -2.032577e-06 -3.452446e-01	-6.339264e-06 -7.141678e-06 -3.384207e-01	2.846505e-06 5.109101e-06 -6.823944e-03
1.3           	-3.436351e-06 -2.343993e-06 -3.419676e-01	-6.275598e-06 -7.421381e-06 -3.352642e-01	2.839248e-06 5.077388e-06 -6.703328e-03
1.30625       	-3.489707e-06 -2.437907e-06 -3.387994e-01	-6.325821e-06 -7.486113e-06 -3.322204e-01	2.836114e-06 5.048207e-06 -6.578928e-03
1.3125        	-3.488011e-06 -2.492759e-06 -3.357540e-01	-6.323435e-06 -7.517844e-06 -3.293025e-01	2.835424e-06 5.025085e-06 -6.451446e-03
1.31875       	-3.394082e-06 -2.425807e-06 -3.324768e-01	-6.231182e-06 -7.432142e-06 -3.261564e-01	2.837099e-06 5.006334e-06 -6.320401e-03
1.325         	-3.525106e-06 -2.640021e-06 -3.292155e-01	-6.361585e-06 -7.623965e-06 -3.230296e-01	2.836480e-06 4.983943e-06 -6.185873e-03
1.33125       	-3.472590e-06 -2.774251e-06 -3.260409e-01	-6.307975e-06 -7.731843e-06 -3.199923e-01	2.835385e-06 4.957592e-06 -6.048598e-03
1.3375        	-3.420249e-06 -2.881798e-06 -3.228710e-01	-6.253765e-06 -7.810951e-06 -3.169622e-01	2.833516e-06 4.929152e-06 -5.908877e-03
1.34375       	-3.296796e-06 -2.907829e-06 -3.198175e-01	-6.120642e-06 -7.812990e-06 -3.140504e-01	2.823846e-06 4.905161e-06 -5.767134e-03