# Moment      
# CofR        : (0.000000e+00 0.000000e+00 0.000000e+00)
#
# Time        	(total_x total_y total_z)	(pressure_x pressure_y pressure_z)	(viscous_x viscous_y viscous_z)
0.00625       	(-4.627626e-05 6.152460e-05 -3.812728e-08)	(-3.869960e-05 7.159621e-05 3.422936e-09)	(-7.576654e-06 -1.007161e-05 -4.155021e-08)
0.0125        	(-5.113400e-05 -3.962704e-05 -3.690026e-08)	(-4.202766e-05 -2.192799e-05 2.247826e-09)	(-9.106347e-06 -1.769905e-05 -3.914809e-08)
0.01875       	(-1.325111e-05 -3.405707e-05 -1.767205e-08)	(-1.069537e-05 -1.337706e-05 1.142987e-09)	(-2.555735e-06 -2.068002e-05 -1.881504e-08)
0.025         	(-7.893138e-06 -4.319851e-05 -7.925699e-09)	(-1.063581e-05 -2.298303e-05 6.747284e-10)	(2.742669e-06 -2.021547e-05 -8.600427e-09)
0.03125       	(-2.048962e-05 -9.862920e-06 -2.594532e-09)	(-2.517274e-05 8.512095e-06 6.006548e-10)	(4.683121e-06 -1.837501e-05 -3.195187e-09)
0.0375        	(-4.759661e-06 -2.416035e-05 8.875014e-10)	(-1.048250e-05 -7.205012e-06 6.236322e-10)	(5.722844e-06 -1.695534e-05 2.638692e-10)
0.04375       	(-6.945697e-06 -1.784135e-05 1.450491e-09)	(-1.303255e-05 -2.215630e-06 5.578975e-10)	(6.086853e-06 -1.562572e-05 8.925934e-10)
0.05          	(-7.432450e-06 -1.479289e-05 1.792035e-09)	(-1.345455e-05 -4.792028e-07 5.246436e-10)	(6.022096e-06 -1.431369e-05 1.267391e-09)
0.05625       	(-6.386737e-06 -1.408491e-05 2.614135e-09)	(-1.225986e-05 -8.833489e-07 5.038019e-10)	(5.873127e-06 -1.320157e-05 2.110333e-09)
0.0625        	(-5.263465e-06 -1.222825e-05 3.942116e-09)	(-1.093097e-05 8.731931e-09 4.766105e-10)	(5.667509e-06 -1.223698e-05 3.465505e-09)
0.06875       	(-3.643417e-06 -1.126850e-05 3.755841e-09)	(-8.978812e-06 7.891123e-08 4.451104e-10)	(5.335394e-06 -1.134741e-05 3.310730e-09)
0.075         	(-6.310045e-06 -9.990312e-06 4.546109e-09)	(-1.142198e-05 5.955973e-07 4.159313e-10)	(5.111937e-06 -1.058591e-05 4.130178e-09)
0.08125       	(-4.576858e-06 -9.206664e-06 5.714097e-09)	(-9.597461e-06 7.254960e-07 4.029710e-10)	(5.020603e-06 -9.932160e-06 5.311126e-09)
0.0875        	(-3.845297e-06 -9.229578e-06 6.312145e-09)	(-8.751637e-06 9.358801e-08 3.694539e-10)	(4.906340e-06 -9.323166e-06 5.942691e-09)
0.09375       	(-2.620379e-06 -9.006293e-06 6.803351e-09)	(-7.385254e-06 -2.486217e-07 3.381462e-10)	(4.764875e-06 -8.757672e-06 6.465204e-09)
0.1           	(-1.897627e-06 -8.879126e-06 7.423703e-09)	(-6.519446e-06 -6.401010e-07 3.143025e-10)	(4.621819e-06 -8.239025e-06 7.109400e-09)
0.10625       	(-9.846275e-08 -9.266632e-06 7.344815e-09)	(-4.573608e-06 -1.508364e-06 2.878010e-10)	(4.475145e-06 -7.758268e-06 7.057014e-09)
0.1125        	(8.238779e-07 -9.279852e-06 6.992244e-09)	(-3.491811e-06 -1.982349e-06 2.653172e-10)	(4.315689e-06 -7.297504e-06 6.726927e-09)
0.11875       	(1.413212e-06 -9.322546e-06 7.239386e-09)	(-2.746870e-06 -2.458811e-06 2.413755e-10)	(4.160082e-06 -6.863735e-06 6.998011e-09)
0.125         	(2.377197e-06 -9.332485e-06 7.543170e-09)	(-1.626751e-06 -2.885419e-06 2.170683e-10)	(4.003949e-06 -6.447066e-06 7.326102e-09)
0.13125       	(2.552849e-06 -9.139861e-06 7.357375e-09)	(-1.297832e-06 -3.067946e-06 1.954327e-10)	(3.850681e-06 -6.071915e-06 7.161942e-09)
0.1375        	(4.296725e-06 -9.637098e-06 7.483529e-09)	(6.147302e-07 -3.932936e-06 1.753616e-10)	(3.681995e-06 -5.704162e-06 7.308167e-09)
0.14375       	(4.624127e-06 -1.040652e-05 7.301720e-09)	(1.110441e-06 -5.076553e-06 1.577392e-10)	(3.513686e-06 -5.329972e-06 7.143981e-09)
0.15          	(5.046748e-06 -9.405655e-06 7.060271e-09)	(1.690672e-06 -4.406525e-06 1.282114e-10)	(3.356076e-06 -4.999130e-06 6.932060e-09)
0.15625       	(5.322045e-06 -9.897642e-06 6.802696e-09)	(2.124844e-06 -5.226010e-06 1.257396e-10)	(3.197201e-06 -4.671632e-06 6.676957e-09)
0.1625        	(5.452627e-06 -9.864693e-06 6.594388e-09)	(2.429400e-06 -5.494656e-06 1.105725e-10)	(3.023227e-06 -4.370037e-06 6.483815e-09)
0.16875       	(6.318367e-06 -9.924267e-06 6.307579e-09)	(3.463917e-06 -5.837953e-06 8.056185e-11)	(2.854450e-06 -4.086314e-06 6.227017e-09)
0.175         	(6.133122e-06 -8.599502e-06 6.302541e-09)	(3.451879e-06 -4.806833e-06 8.786814e-11)	(2.681243e-06 -3.792669e-06 6.214673e-09)
0.18125       	(5.946771e-06 -9.623891e-06 5.972078e-09)	(3.430185e-06 -6.095453e-06 6.452883e-11)	(2.516587e-06 -3.528437e-06 5.907549e-09)
0.1875        	(6.426102e-06 -9.135538e-06 5.542763e-09)	(4.031670e-06 -5.831541e-06 5.173452e-11)	(2.394432e-06 -3.303997e-06 5.491028e-09)
0.19375       	(4.980664e-06 -8.591281e-06 5.132170e-09)	(2.762017e-06 -5.524739e-06 5.559252e-11)	(2.218647e-06 -3.066542e-06 5.076578e-09)
0.2           	(5.678975e-06 -8.440351e-06 4.710439e-09)	(3.603599e-06 -5.590109e-06 4.036419e-11)	(2.075376e-06 -2.850242e-06 4.670075e-09)
0.20625       	(4.920598e-06 -8.008497e-06 4.362104e-09)	(2.963485e-06 -5.354742e-06 3.265162e-11)	(1.957113e-06 -2.653754e-06 4.329452e-09)
0.2125        	(5.225319e-06 -8.208278e-06 3.956106e-09)	(3.385916e-06 -5.740038e-06 2.129261e-11)	(1.839403e-06 -2.468240e-06 3.934813e-09)
0.21875       	(4.913530e-06 -7.666326e-06 3.641526e-09)	(3.194863e-06 -5.379962e-06 1.184958e-11)	(1.718667e-06 -2.286364e-06 3.629677e-09)
0.225         	(4.171366e-06 -7.427084e-06 3.304825e-09)	(2.565413e-06 -5.313721e-06 -6.012363e-13)	(1.605952e-06 -2.113363e-06 3.305426e-09)
0.23125       	(4.671401e-06 -7.264867e-06 2.928355e-09)	(3.166578e-06 -5.317272e-06 -7.238429e-12)	(1.504823e-06 -1.947595e-06 2.935594e-09)
0.2375        	(3.747902e-06 -6.637430e-06 2.455251e-09)	(2.351308e-06 -4.840958e-06 -1.603465e-11)	(1.396594e-06 -1.796472e-06 2.471285e-09)
0.24375       	(2.926836e-06 -6.382613e-06 1.968839e-09)	(1.638781e-06 -4.723636e-06 -2.128976e-11)	(1.288054e-06 -1.658978e-06 1.990129e-09)
0.25          	(3.427326e-06 -6.443644e-06 1.466773e-09)	(2.239251e-06 -4.908589e-06 -2.659084e-11)	(1.188075e-06 -1.535054e-06 1.493364e-09)
0.25625       	(2.552394e-06 -5.854079e-06 1.080080e-09)	(1.453214e-06 -4.430409e-06 -3.571225e-11)	(1.099180e-06 -1.423670e-06 1.115792e-09)
0.2625        	(2.143877e-06 -5.488903e-06 7.521186e-10)	(1.131495e-06 -4.174005e-06 -3.612601e-11)	(1.012382e-06 -1.314897e-06 7.882446e-10)
0.26875       	(1.803402e-06 -5.205828e-06 5.281513e-10)	(8.736978e-07 -3.993031e-06 -4.454546e-11)	(9.297037e-07 -1.212797e-06 5.726968e-10)
0.275         	(1.479625e-06 -4.900631e-06 3.153305e-10)	(6.286267e-07 -3.779604e-06 -4.817929e-11)	(8.509984e-07 -1.121027e-06 3.635097e-10)
0.28125       	(1.257129e-06 -4.316295e-06 -1.090071e-10)	(4.846796e-07 -3.278705e-06 -5.266928e-11)	(7.724492e-07 -1.037590e-06 -5.633778e-11)
0.2875        	(1.047602e-06 -4.619709e-06 -5.165398e-10)	(3.497401e-07 -3.654602e-06 -5.481857e-11)	(6.978622e-07 -9.651066e-07 -4.617213e-10)
0.29375       	(8.711119e-07 -4.313473e-06 -7.281987e-10)	(2.488449e-07 -3.418431e-06 -6.068752e-11)	(6.222670e-07 -8.950414e-07 -6.675112e-10)
0.3           	(3.737784e-07 -3.531945e-06 -1.016946e-09)	(-1.734095e-07 -2.703877e-06 -6.355156e-11)	(5.471880e-07 -8.280682e-07 -9.533947e-10)
0.30625       	(5.703651e-07 -3.583492e-06 -1.404044e-09)	(8.938961e-08 -2.813754e-06 -6.086148e-11)	(4.809755e-07 -7.697387e-07 -1.343183e-09)
0.3125        	(1.705473e-07 -3.269271e-06 -1.724653e-09)	(-2.448068e-07 -2.551158e-06 -6.747365e-11)	(4.153540e-07 -7.181125e-07 -1.657180e-09)
0.31875       	(-2.785221e-07 -3.089341e-06 -1.899382e-09)	(-6.282845e-07 -2.418052e-06 -6.967405e-11)	(3.497625e-07 -6.712887e-07 -1.829708e-09)
0.325         	(-4.155283e-07 -2.414488e-06 -2.079189e-09)	(-7.059228e-07 -1.782288e-06 -6.921178e-11)	(2.903945e-07 -6.321997e-07 -2.009978e-09)
0.33125       	(-4.300525e-07 -2.412835e-06 -2.313041e-09)	(-6.641155e-07 -1.818363e-06 -6.963999e-11)	(2.340630e-07 -5.944721e-07 -2.243401e-09)
0.3375        	(-4.098478e-07 -2.121973e-06 -2.520842e-09)	(-5.891133e-07 -1.560756e-06 -6.979722e-11)	(1.792655e-07 -5.612172e-07 -2.451045e-09)
0.34375       	(-6.023395e-07 -1.967200e-06 -2.701065e-09)	(-7.255744e-07 -1.439875e-06 -7.075427e-11)	(1.232349e-07 -5.273250e-07 -2.630311e-09)
0.35          	(-5.986858e-07 -1.592539e-06 -2.863447e-09)	(-6.686790e-07 -1.100741e-06 -6.983868e-11)	(6.999321e-08 -4.917982e-07 -2.793609e-09)
0.35625       	(-6.485737e-07 -1.533274e-06 -2.947482e-09)	(-6.673710e-07 -1.074280e-06 -7.049821e-11)	(1.879733e-08 -4.589935e-07 -2.876984e-09)
0.3625        	(-6.710512e-07 -1.304428e-06 -3.147673e-09)	(-6.383718e-07 -8.743415e-07 -6.929957e-11)	(-3.267941e-08 -4.300870e-07 -3.078373e-09)
0.36875       	(-6.949470e-07 -1.064944e-06 -3.302253e-09)	(-6.148930e-07 -6.644567e-07 -6.971171e-11)	(-8.005404e-08 -4.004874e-07 -3.232541e-09)
0.375         	(-7.897028e-07 -6.352431e-07 -3.398722e-09)	(-6.636517e-07 -2.645728e-07 -6.910267e-11)	(-1.260511e-07 -3.706703e-07 -3.329619e-09)
0.38125       	(-7.655560e-07 1.371649e-08 -3.522035e-09)	(-5.891689e-07 3.452871e-07 -7.526209e-11)	(-1.763871e-07 -3.315706e-07 -3.446773e-09)
0.3875        	(-1.490666e-06 7.221644e-07 -3.586364e-09)	(-1.256695e-06 1.009323e-06 -4.724365e-11)	(-2.339714e-07 -2.871586e-07 -3.539121e-09)
0.39375       	(-1.158357e-06 2.345703e-07 -3.624876e-09)	(-8.756979e-07 4.998093e-07 -2.297832e-11)	(-2.826591e-07 -2.652389e-07 -3.601897e-09)
0.4           	(-1.059753e-06 7.250855e-07 -3.663660e-09)	(-7.437703e-07 9.702714e-07 -3.682403e-11)	(-3.159825e-07 -2.451859e-07 -3.626836e-09)
0.40625       	(-6.388902e-07 7.216023e-07 -3.662760e-09)	(-2.981467e-07 9.521617e-07 -3.223332e-11)	(-3.407436e-07 -2.305594e-07 -3.630526e-09)
0.4125        	(-7.821584e-07 1.050606e-06 -3.741639e-09)	(-4.229556e-07 1.268031e-06 -5.562945e-11)	(-3.592027e-07 -2.174257e-07 -3.686009e-09)
0.41875       	(-7.448374e-07 1.560649e-06 -3.775704e-09)	(-3.531404e-07 1.757346e-06 1.641034e-12)	(-3.916970e-07 -1.966966e-07 -3.777345e-09)
0.425         	(-6.645000e-07 1.654978e-06 -3.819286e-09)	(-2.371783e-07 1.836776e-06 2.220201e-11)	(-4.273217e-07 -1.817982e-07 -3.841488e-09)
0.43125       	(8.716785e-08 1.600521e-06 -3.851096e-09)	(5.275082e-07 1.777622e-06 -2.580597e-11)	(-4.403403e-07 -1.771014e-07 -3.825290e-09)
0.4375        	(5.233085e-07 1.780198e-06 -3.827941e-09)	(9.676171e-07 1.957148e-06 -3.721541e-11)	(-4.443086e-07 -1.769503e-07 -3.790726e-09)
0.44375       	(3.709762e-07 2.224322e-06 -3.811373e-09)	(8.299811e-07 2.394639e-06 -1.776175e-11)	(-4.590049e-07 -1.703167e-07 -3.793611e-09)
0.45          	(8.968835e-07 1.913624e-06 -3.777611e-09)	(1.372443e-06 2.081500e-06 1.868774e-12)	(-4.755596e-07 -1.678765e-07 -3.779480e-09)
0.45625       	(1.300791e-06 1.938224e-06 -3.722468e-09)	(1.784863e-06 2.108509e-06 8.881677e-13)	(-4.840728e-07 -1.702844e-07 -3.723356e-09)
0.4625        	(1.228566e-06 2.170768e-06 -3.693577e-09)	(1.727270e-06 2.335309e-06 -3.030956e-12)	(-4.987039e-07 -1.645405e-07 -3.690546e-09)
0.46875       	(1.554848e-06 2.323155e-06 -3.671196e-09)	(2.073418e-06 2.473811e-06 -8.118901e-13)	(-5.185694e-07 -1.506561e-07 -3.670384e-09)
0.475         	(2.139287e-06 2.393159e-06 -3.631092e-09)	(2.673814e-06 2.532117e-06 -4.319256e-12)	(-5.345272e-07 -1.389576e-07 -3.626773e-09)
0.48125       	(1.813372e-06 2.713042e-06 -3.541433e-09)	(2.360847e-06 2.840975e-06 7.340321e-12)	(-5.474750e-07 -1.279332e-07 -3.548773e-09)
0.4875        	(2.561607e-06 2.725141e-06 -3.501126e-09)	(3.118738e-06 2.842427e-06 3.765942e-12)	(-5.571309e-07 -1.172859e-07 -3.504892e-09)
0.49375       	(2.396623e-06 2.753150e-06 -3.461517e-09)	(2.961449e-06 2.859225e-06 4.334211e-12)	(-5.648267e-07 -1.060748e-07 -3.465851e-09)
0.5           	(2.664973e-06 2.883902e-06 -3.434298e-09)	(3.238170e-06 2.977356e-06 3.786571e-12)	(-5.731968e-07 -9.345411e-08 -3.438085e-09)
0.50625       	(3.131648e-06 2.926200e-06 -3.377415e-09)	(3.712501e-06 3.005339e-06 9.926069e-12)	(-5.808523e-07 -7.913950e-08 -3.387341e-09)
0.5125        	(3.291817e-06 3.022581e-06 -3.312330e-09)	(3.879073e-06 3.086750e-06 7.875352e-12)	(-5.872558e-07 -6.416937e-08 -3.320205e-09)
0.51875       	(3.574813e-06 3.153102e-06 -3.237330e-09)	(4.166671e-06 3.203653e-06 -1.909853e-11)	(-5.918585e-07 -5.055052e-08 -3.218232e-09)
0.525         	(4.677010e-06 2.303921e-06 -3.219935e-09)	(5.274662e-06 2.345939e-06 -2.294128e-11)	(-5.976522e-07 -4.201759e-08 -3.196994e-09)
0.53125       	(4.579380e-06 2.491833e-06 -3.292562e-09)	(5.177691e-06 2.508550e-06 -1.137878e-11)	(-5.983104e-07 -1.671748e-08 -3.281183e-09)
0.5375        	(4.663758e-06 2.795679e-06 -3.214466e-09)	(5.264219e-06 2.781650e-06 -1.412275e-11)	(-6.004614e-07 1.402892e-08 -3.200343e-09)
0.54375       	(4.568936e-06 3.033153e-06 -3.073543e-09)	(5.178891e-06 2.992416e-06 -1.144152e-11)	(-6.099547e-07 4.073703e-08 -3.062101e-09)
0.55          	(4.719818e-06 3.164032e-06 -3.024898e-09)	(5.340108e-06 3.094991e-06 -2.735936e-11)	(-6.202901e-07 6.904103e-08 -2.997539e-09)
0.55625       	(4.902364e-06 3.404448e-06 -2.937393e-09)	(5.529921e-06 3.304903e-06 2.910036e-11)	(-6.275574e-07 9.954557e-08 -2.966493e-09)
0.5625        	(5.321952e-06 3.207024e-06 -2.870428e-09)	(5.951526e-06 3.081194e-06 2.066187e-11)	(-6.295740e-07 1.258296e-07 -2.891090e-09)
0.56875       	(5.639341e-06 3.253343e-06 -2.820019e-09)	(6.265410e-06 3.105428e-06 1.935426e-11)	(-6.260690e-07 1.479152e-07 -2.839373e-09)
0.575         	(5.632326e-06 3.197324e-06 -2.837196e-09)	(6.256055e-06 3.026156e-06 1.339911e-11)	(-6.237292e-07 1.711681e-07 -2.850595e-09)
0.58125       	(5.979490e-06 2.997658e-06 -2.813395e-09)	(6.598701e-06 2.805401e-06 1.820028e-11)	(-6.192101e-07 1.922569e-07 -2.831595e-09)
0.5875        	(6.326993e-06 3.094560e-06 -2.759922e-09)	(6.939482e-06 2.877464e-06 1.707147e-11)	(-6.124889e-07 2.170967e-07 -2.776993e-09)
0.59375       	(6.496371e-06 3.031100e-06 -2.736944e-09)	(7.102664e-06 2.787451e-06 1.993046e-11)	(-6.062930e-07 2.436490e-07 -2.756875e-09)
0.6           	(6.744195e-06 2.952515e-06 -2.711287e-09)	(7.344527e-06 2.681516e-06 2.272550e-11)	(-6.003316e-07 2.709989e-07 -2.734013e-09)
0.60625       	(6.980781e-06 2.917140e-06 -2.684861e-09)	(7.575483e-06 2.617089e-06 2.223838e-11)	(-5.947022e-07 3.000511e-07 -2.707099e-09)
0.6125        	(7.498666e-06 2.931536e-06 -2.671274e-09)	(8.085551e-06 2.601621e-06 2.482005e-11)	(-5.868847e-07 3.299153e-07 -2.696094e-09)
0.61875       	(7.349790e-06 2.867084e-06 -2.645038e-09)	(7.928736e-06 2.505963e-06 2.538565e-11)	(-5.789463e-07 3.611212e-07 -2.670423e-09)
0.625         	(7.671255e-06 2.781584e-06 -2.634563e-09)	(8.243088e-06 2.388934e-06 2.788441e-11)	(-5.718332e-07 3.926501e-07 -2.662447e-09)
0.63125       	(7.688378e-06 2.727836e-06 -2.619400e-09)	(8.253354e-06 2.302238e-06 2.909095e-11)	(-5.649762e-07 4.255977e-07 -2.648491e-09)
0.6375        	(8.127265e-06 2.603725e-06 -2.601560e-09)	(8.682734e-06 2.144610e-06 3.027290e-11)	(-5.554689e-07 4.591151e-07 -2.631832e-09)
0.64375       	(8.191075e-06 2.665913e-06 -2.601744e-09)	(8.734327e-06 2.173741e-06 3.347444e-11)	(-5.432517e-07 4.921720e-07 -2.635219e-09)
0.65          	(8.231693e-06 2.657717e-06 -2.606754e-09)	(8.758704e-06 2.136374e-06 3.777631e-11)	(-5.270115e-07 5.213431e-07 -2.644530e-09)
0.65625       	(8.178324e-06 2.729786e-06 -2.608580e-09)	(8.685845e-06 2.181947e-06 3.775823e-11)	(-5.075212e-07 5.478395e-07 -2.646338e-09)
0.6625        	(8.300858e-06 2.772289e-06 -2.626400e-09)	(8.791509e-06 2.194875e-06 4.460633e-11)	(-4.906507e-07 5.774145e-07 -2.671006e-09)
0.66875       	(8.671134e-06 2.653279e-06 -2.656356e-09)	(9.146169e-06 2.041479e-06 4.712673e-11)	(-4.750355e-07 6.118001e-07 -2.703482e-09)
0.675         	(8.463201e-06 2.693184e-06 -2.679647e-09)	(8.925704e-06 2.043589e-06 5.116518e-11)	(-4.625036e-07 6.495946e-07 -2.730812e-09)
0.68125       	(8.602671e-06 2.599386e-06 -2.720160e-09)	(9.051199e-06 1.909630e-06 5.745152e-11)	(-4.485289e-07 6.897555e-07 -2.777612e-09)
0.6875        	(8.808576e-06 2.584590e-06 -2.774115e-09)	(9.241559e-06 1.852318e-06 6.575492e-11)	(-4.329824e-07 7.322719e-07 -2.839869e-09)
0.69375       	(8.713637e-06 2.571131e-06 -2.832168e-09)	(9.133783e-06 1.793675e-06 7.354448e-11)	(-4.201454e-07 7.774564e-07 -2.905713e-09)
0.7           	(8.709037e-06 2.495594e-06 -2.904560e-09)	(9.119533e-06 1.671453e-06 7.828149e-11)	(-4.104959e-07 8.241414e-07 -2.982842e-09)
0.70625       	(8.552769e-06 2.495908e-06 -2.980233e-09)	(8.956121e-06 1.622566e-06 8.729913e-11)	(-4.033516e-07 8.733414e-07 -3.067532e-09)
0.7125        	(8.549123e-06 2.438289e-06 -3.069496e-09)	(8.947077e-06 1.514597e-06 9.743331e-11)	(-3.979541e-07 9.236924e-07 -3.166930e-09)
0.71875       	(8.797339e-06 2.533771e-06 -3.175093e-09)	(9.188272e-06 1.557423e-06 1.066525e-10)	(-3.909331e-07 9.763483e-07 -3.281745e-09)
0.725         	(8.319643e-06 2.495731e-06 -3.288477e-09)	(8.704768e-06 1.464881e-06 1.207496e-10)	(-3.851251e-07 1.030851e-06 -3.409227e-09)
0.73125       	(8.607871e-06 2.483717e-06 -3.409878e-09)	(8.985879e-06 1.396421e-06 1.304860e-10)	(-3.780077e-07 1.087296e-06 -3.540364e-09)
0.7375        	(8.267354e-06 2.487296e-06 -3.518801e-09)	(8.639231e-06 1.341163e-06 1.417038e-10)	(-3.718764e-07 1.146133e-06 -3.660505e-09)
0.74375       	(6.343297e-06 4.348999e-06 -3.641420e-09)	(6.725842e-06 3.126343e-06 1.418452e-10)	(-3.825453e-07 1.222656e-06 -3.783265e-09)
0.75          	(5.941235e-06 4.822964e-06 -3.846893e-09)	(6.311309e-06 3.541031e-06 1.120418e-10)	(-3.700736e-07 1.281932e-06 -3.958935e-09)
0.75625       	(6.892410e-06 3.386658e-06 -3.859196e-09)	(7.208713e-06 2.088029e-06 2.666055e-10)	(-3.163035e-07 1.298629e-06 -4.125801e-09)
0.7625        	(7.078445e-06 3.000371e-06 -4.077839e-09)	(7.344371e-06 1.687572e-06 1.711635e-10)	(-2.659254e-07 1.312799e-06 -4.249003e-09)
0.76875       	(6.360590e-06 3.399394e-06 -4.140716e-09)	(6.599967e-06 2.050386e-06 2.234684e-10)	(-2.393763e-07 1.349008e-06 -4.364184e-09)
0.775         	(6.955534e-06 2.883962e-06 -4.270716e-09)	(7.167703e-06 1.493302e-06 2.349307e-10)	(-2.121690e-07 1.390659e-06 -4.505647e-09)
0.78125       	(6.592533e-06 2.937814e-06 -4.395845e-09)	(6.783698e-06 1.491640e-06 2.413022e-10)	(-1.911645e-07 1.446174e-06 -4.637147e-09)
0.7875        	(6.391122e-06 2.824118e-06 -4.497014e-09)	(6.569287e-06 1.311996e-06 2.566902e-10)	(-1.781654e-07 1.512122e-06 -4.753705e-09)
0.79375       	(6.149190e-06 3.057219e-06 -4.598319e-09)	(6.318057e-06 1.471527e-06 2.657902e-10)	(-1.688672e-07 1.585692e-06 -4.864109e-09)
0.8           	(5.848411e-06 2.928038e-06 -4.686275e-09)	(6.013878e-06 1.264401e-06 2.783985e-10)	(-1.654679e-07 1.663638e-06 -4.964674e-09)
0.80625       	(5.686200e-06 2.987542e-06 -4.767358e-09)	(5.852938e-06 1.247013e-06 2.892550e-10)	(-1.667374e-07 1.740529e-06 -5.056614e-09)
0.8125        	(5.550045e-06 2.943799e-06 -4.858944e-09)	(5.714052e-06 1.129399e-06 3.005633e-10)	(-1.640069e-07 1.814401e-06 -5.159507e-09)
0.81875       	(5.523249e-06 2.955358e-06 -4.947656e-09)	(5.681705e-06 1.068043e-06 3.086507e-10)	(-1.584567e-07 1.887316e-06 -5.256307e-09)
0.825         	(4.815411e-06 3.055244e-06 -5.002174e-09)	(4.970173e-06 1.095684e-06 3.163020e-10)	(-1.547618e-07 1.959559e-06 -5.318476e-09)
0.83125       	(4.802655e-06 3.030957e-06 -5.022637e-09)	(4.952460e-06 1.002900e-06 3.228698e-10)	(-1.498050e-07 2.028057e-06 -5.345507e-09)
0.8375        	(4.592661e-06 3.059590e-06 -5.055957e-09)	(4.736660e-06 9.664451e-07 3.236238e-10)	(-1.439989e-07 2.093145e-06 -5.379581e-09)
0.84375       	(4.382362e-06 3.131380e-06 -5.067320e-09)	(4.520842e-06 9.764394e-07 3.264032e-10)	(-1.384800e-07 2.154940e-06 -5.393723e-09)
0.85          	(4.095819e-06 3.234312e-06 -5.039156e-09)	(4.230602e-06 1.020159e-06 3.303846e-10)	(-1.347831e-07 2.214153e-06 -5.369540e-09)
0.85625       	(3.852232e-06 3.341916e-06 -4.996137e-09)	(3.984606e-06 1.071421e-06 3.249024e-10)	(-1.323744e-07 2.270496e-06 -5.321039e-09)
0.8625        	(3.594841e-06 3.416169e-06 -4.931079e-09)	(3.723920e-06 1.094027e-06 3.248025e-10)	(-1.290786e-07 2.322141e-06 -5.255881e-09)
0.86875       	(3.364609e-06 3.491931e-06 -4.851078e-09)	(3.491381e-06 1.122392e-06 3.177509e-10)	(-1.267723e-07 2.369539e-06 -5.168829e-09)
0.875         	(3.136902e-06 3.367208e-06 -4.761714e-09)	(3.261136e-06 9.586038e-07 3.100773e-10)	(-1.242340e-07 2.408605e-06 -5.071791e-09)
0.88125       	(3.347575e-06 2.472239e-06 -4.673563e-09)	(3.461360e-06 3.823108e-08 2.840446e-10)	(-1.137859e-07 2.434008e-06 -4.957607e-09)
0.8875        	(2.914851e-06 3.319956e-06 -4.522590e-09)	(3.023089e-06 8.503759e-07 3.015849e-10)	(-1.082376e-07 2.469580e-06 -4.824175e-09)
0.89375       	(2.621905e-06 3.168628e-06 -4.403335e-09)	(2.732154e-06 6.685306e-07 2.761982e-10)	(-1.102480e-07 2.500098e-06 -4.679533e-09)
0.9           	(2.819740e-06 3.105249e-06 -4.296328e-09)	(2.932795e-06 5.801478e-07 2.476028e-10)	(-1.130546e-07 2.525101e-06 -4.543931e-09)
0.90625       	(2.215560e-06 3.146757e-06 -4.187318e-09)	(2.342387e-06 5.918211e-07 2.320134e-10)	(-1.268271e-07 2.554936e-06 -4.419332e-09)
0.9125        	(1.687962e-06 3.547719e-06 -4.069098e-09)	(1.835946e-06 9.588390e-07 2.386087e-10)	(-1.479839e-07 2.588880e-06 -4.307707e-09)
0.91875       	(1.563690e-06 3.466410e-06 -3.943607e-09)	(1.728268e-06 8.505187e-07 2.632023e-10)	(-1.645778e-07 2.615891e-06 -4.206809e-09)
0.925         	(1.923633e-06 2.996484e-06 -3.909603e-09)	(2.087553e-06 3.731012e-07 1.711307e-10)	(-1.639208e-07 2.623383e-06 -4.080733e-09)
0.93125       	(2.145915e-06 2.713091e-06 -3.830836e-09)	(2.302222e-06 9.306551e-08 1.307829e-10)	(-1.563071e-07 2.620025e-06 -3.961619e-09)
0.9375        	(1.287275e-06 3.280614e-06 -3.816908e-09)	(1.462480e-06 6.464571e-07 8.146167e-11)	(-1.752049e-07 2.634157e-06 -3.898369e-09)
0.94375       	(1.026307e-06 3.388422e-06 -3.730820e-09)	(1.238421e-06 7.244122e-07 1.383045e-10)	(-2.121134e-07 2.664010e-06 -3.869125e-09)
0.95          	(9.704396e-07 3.287957e-06 -3.734244e-09)	(1.217469e-06 5.998370e-07 1.266048e-10)	(-2.470290e-07 2.688120e-06 -3.860849e-09)
0.95625       	(9.280281e-07 3.209172e-06 -3.750474e-09)	(1.207823e-06 5.005893e-07 1.172723e-10)	(-2.797949e-07 2.708583e-06 -3.867746e-09)
0.9625        	(7.988744e-07 3.197268e-06 -3.788941e-09)	(1.106927e-06 4.788881e-07 1.115156e-10)	(-3.080527e-07 2.718380e-06 -3.900456e-09)
0.96875       	(4.321766e-07 3.183589e-06 -3.855528e-09)	(7.693929e-07 4.607505e-07 1.054742e-10)	(-3.372163e-07 2.722839e-06 -3.961002e-09)
0.975         	(6.556825e-07 3.130379e-06 -3.941854e-09)	(1.018749e-06 4.058639e-07 9.728377e-11)	(-3.630668e-07 2.724515e-06 -4.039138e-09)
0.98125       	(4.134262e-07 3.075249e-06 -4.054193e-09)	(8.012626e-07 3.525818e-07 8.896111e-11)	(-3.878364e-07 2.722667e-06 -4.143154e-09)
0.9875        	(4.387305e-07 3.075539e-06 -4.167759e-09)	(8.515898e-07 3.570169e-07 9.568511e-11)	(-4.128593e-07 2.718522e-06 -4.263444e-09)
0.99375       	(3.674435e-07 3.006617e-06 -4.314777e-09)	(8.047752e-07 2.954948e-07 8.312767e-11)	(-4.373317e-07 2.711122e-06 -4.397904e-09)
1             	(2.038131e-07 3.039775e-06 -4.445323e-09)	(6.660054e-07 3.365592e-07 1.079291e-10)	(-4.621924e-07 2.703215e-06 -4.553252e-09)
1.00625       	(1.755040e-07 2.980253e-06 -4.612409e-09)	(6.618910e-07 2.873110e-07 1.050331e-10)	(-4.863870e-07 2.692942e-06 -4.717442e-09)
1.0125        	(1.541105e-07 2.838659e-06 -4.777510e-09)	(6.651907e-07 1.581314e-07 9.765749e-11)	(-5.110803e-07 2.680527e-06 -4.875168e-09)
1.01875       	(1.183647e-07 2.686464e-06 -4.918486e-09)	(6.541913e-07 2.084100e-08 9.538232e-11)	(-5.358266e-07 2.665623e-06 -5.013868e-09)
1.025         	(-3.550616e-08 2.751436e-06 -5.055135e-09)	(5.241341e-07 1.005248e-07 9.497581e-11)	(-5.596403e-07 2.650911e-06 -5.150111e-09)
1.03125       	(2.117230e-08 2.572295e-06 -5.189361e-09)	(6.033311e-07 -6.128639e-08 9.643936e-11)	(-5.821588e-07 2.633581e-06 -5.285800e-09)
1.0375        	(-9.404617e-08 2.594979e-06 -5.312248e-09)	(5.111544e-07 -2.147382e-08 9.755209e-11)	(-6.052006e-07 2.616453e-06 -5.409800e-09)
1.04375       	(2.670566e-08 2.482700e-06 -5.422781e-09)	(6.517493e-07 -1.155461e-07 9.606597e-11)	(-6.250437e-07 2.598246e-06 -5.518847e-09)
1.05          	(-1.151275e-07 2.557551e-06 -5.521868e-09)	(5.309652e-07 -2.347384e-08 9.529678e-11)	(-6.460927e-07 2.581025e-06 -5.617165e-09)
1.05625       	(5.418031e-08 2.327599e-06 -5.604552e-09)	(7.199198e-07 -2.327883e-07 9.180178e-11)	(-6.657395e-07 2.560387e-06 -5.696354e-09)
1.0625        	(-8.576789e-08 2.259702e-06 -5.670347e-09)	(5.987538e-07 -2.771328e-07 9.045502e-11)	(-6.845217e-07 2.536835e-06 -5.760802e-09)
1.06875       	(-1.036080e-07 2.335914e-06 -5.745609e-09)	(6.010919e-07 -1.810054e-07 9.117173e-11)	(-7.046999e-07 2.516919e-06 -5.836781e-09)
1.075         	(-1.369622e-07 2.332637e-06 -5.827133e-09)	(5.878673e-07 -1.655559e-07 8.870944e-11)	(-7.248295e-07 2.498193e-06 -5.915842e-09)
1.08125       	(-4.824947e-08 2.168918e-06 -5.891804e-09)	(6.947702e-07 -3.060732e-07 8.777598e-11)	(-7.430196e-07 2.474991e-06 -5.979580e-09)
1.0875        	(-1.253326e-07 2.168423e-06 -5.951821e-09)	(6.353200e-07 -2.827285e-07 8.798878e-11)	(-7.606525e-07 2.451151e-06 -6.039810e-09)
1.09375       	(-8.377867e-08 2.211177e-06 -6.018811e-09)	(6.949568e-07 -2.179568e-07 8.612249e-11)	(-7.787354e-07 2.429134e-06 -6.104934e-09)
1.1           	(-1.765341e-07 2.191992e-06 -6.082722e-09)	(6.201945e-07 -2.146657e-07 8.502041e-11)	(-7.967285e-07 2.406658e-06 -6.167742e-09)
1.10625       	(-5.093089e-08 2.117135e-06 -6.129926e-09)	(7.626890e-07 -2.654987e-07 8.393025e-11)	(-8.136199e-07 2.382633e-06 -6.213856e-09)
1.1125        	(4.011803e-08 2.041708e-06 -6.183313e-09)	(8.685493e-07 -3.162078e-07 8.296723e-11)	(-8.284313e-07 2.357916e-06 -6.266280e-09)
1.11875       	(-3.281885e-08 1.995848e-06 -6.239779e-09)	(8.113668e-07 -3.367586e-07 8.195912e-11)	(-8.441856e-07 2.332606e-06 -6.321738e-09)
1.125         	(1.251126e-07 1.948368e-06 -6.293857e-09)	(9.838679e-07 -3.588790e-07 8.091122e-11)	(-8.587552e-07 2.307247e-06 -6.374768e-09)
1.13125       	(1.878876e-07 1.883124e-06 -6.346106e-09)	(1.060077e-06 -3.986880e-07 7.992408e-11)	(-8.721896e-07 2.281812e-06 -6.426030e-09)
1.1375        	(2.329404e-07 1.862117e-06 -6.413055e-09)	(1.118597e-06 -3.953468e-07 7.945391e-11)	(-8.856568e-07 2.257464e-06 -6.492509e-09)
1.14375       	(1.711375e-07 1.819236e-06 -6.466984e-09)	(1.071781e-06 -4.142629e-07 7.918583e-11)	(-9.006438e-07 2.233499e-06 -6.546170e-09)
1.15          	(2.650444e-07 1.745100e-06 -6.507896e-09)	(1.180426e-06 -4.644215e-07 7.889609e-11)	(-9.153815e-07 2.209521e-06 -6.586792e-09)
1.15625       	(5.060957e-07 1.719122e-06 -6.552805e-09)	(1.433939e-06 -4.684143e-07 7.832367e-11)	(-9.278433e-07 2.187536e-06 -6.631129e-09)
1.1625        	(3.765943e-07 1.652304e-06 -6.596731e-09)	(1.318593e-06 -5.141515e-07 7.779946e-11)	(-9.419992e-07 2.166455e-06 -6.674530e-09)
1.16875       	(5.682898e-07 1.608319e-06 -6.633566e-09)	(1.523694e-06 -5.375963e-07 7.797825e-11)	(-9.554043e-07 2.145916e-06 -6.711544e-09)
1.175         	(6.792349e-07 1.564078e-06 -6.669139e-09)	(1.648125e-06 -5.634818e-07 7.759602e-11)	(-9.688902e-07 2.127560e-06 -6.746735e-09)
1.18125       	(6.966764e-07 1.526660e-06 -6.700535e-09)	(1.679814e-06 -5.833889e-07 7.729384e-11)	(-9.831379e-07 2.110049e-06 -6.777828e-09)
1.1875        	(8.385000e-07 1.551761e-06 -6.728379e-09)	(1.834662e-06 -5.428292e-07 7.714464e-11)	(-9.961621e-07 2.094590e-06 -6.805523e-09)
1.19375       	(5.932832e-07 1.498585e-06 -6.736307e-09)	(1.605218e-06 -5.817869e-07 7.696920e-11)	(-1.011935e-06 2.080372e-06 -6.813276e-09)
1.2           	(9.502673e-07 1.375782e-06 -6.734963e-09)	(1.976792e-06 -6.906439e-07 7.672476e-11)	(-1.026525e-06 2.066426e-06 -6.811688e-09)
1.20625       	(8.239538e-07 1.422138e-06 -6.730605e-09)	(1.864913e-06 -6.317313e-07 7.663742e-11)	(-1.040959e-06 2.053869e-06 -6.807243e-09)
1.2125        	(1.056083e-06 1.370625e-06 -6.721135e-09)	(2.110843e-06 -6.723696e-07 7.566758e-11)	(-1.054760e-06 2.042994e-06 -6.796803e-09)
1.21875       	(1.263135e-06 1.344576e-06 -6.705590e-09)	(2.329623e-06 -6.883105e-07 7.516388e-11)	(-1.066488e-06 2.032887e-06 -6.780754e-09)
1.225         	(9.777157e-07 1.352555e-06 -6.684361e-09)	(2.057999e-06 -6.711766e-07 7.441685e-11)	(-1.080283e-06 2.023731e-06 -6.758778e-09)
1.23125       	(1.247915e-06 1.298682e-06 -6.652577e-09)	(2.341085e-06 -7.169181e-07 7.406940e-11)	(-1.093170e-06 2.015600e-06 -6.726647e-09)
1.2375        	(1.385147e-06 1.275004e-06 -6.611731e-09)	(2.489332e-06 -7.328652e-07 7.312306e-11)	(-1.104185e-06 2.007869e-06 -6.684854e-09)
1.24375       	(1.268928e-06 1.266570e-06 -6.560952e-09)	(2.385585e-06 -7.348160e-07 7.141636e-11)	(-1.116657e-06 2.001386e-06 -6.632369e-09)
1.25          	(1.419553e-06 1.280006e-06 -6.501965e-09)	(2.548330e-06 -7.165603e-07 7.208502e-11)	(-1.128777e-06 1.996567e-06 -6.574050e-09)
1.25625       	(1.691080e-06 1.293309e-06 -6.445029e-09)	(2.829569e-06 -6.990310e-07 7.126719e-11)	(-1.138489e-06 1.992340e-06 -6.516296e-09)
1.2625        	(1.663493e-06 1.202172e-06 -6.389056e-09)	(2.811245e-06 -7.848587e-07 7.114359e-11)	(-1.147752e-06 1.987031e-06 -6.460199e-09)
1.26875       	(1.543124e-06 1.228679e-06 -6.323189e-09)	(2.701869e-06 -7.538163e-07 6.946839e-11)	(-1.158745e-06 1.982496e-06 -6.392657e-09)
1.275         	(1.525273e-06 1.453940e-06 -6.247826e-09)	(2.695935e-06 -5.273109e-07 7.068364e-11)	(-1.170662e-06 1.981251e-06 -6.318510e-09)
1.28125       	(1.706576e-06 1.398208e-06 -6.160618e-09)	(2.888343e-06 -5.834028e-07 6.992949e-11)	(-1.181766e-06 1.981610e-06 -6.230548e-09)
1.2875        	(1.687759e-06 1.299593e-06 -6.070409e-09)	(2.878572e-06 -6.787809e-07 6.775951e-11)	(-1.190813e-06 1.978374e-06 -6.138168e-09)
1.29375       	(1.673291e-06 1.353197e-06 -5.983144e-09)	(2.872829e-06 -6.217038e-07 6.685824e-11)	(-1.199538e-06 1.974901e-06 -6.050002e-09)
1.3           	(1.877858e-06 1.410101e-06 -5.891187e-09)	(3.085330e-06 -5.632398e-07 6.548092e-11)	(-1.207472e-06 1.973341e-06 -5.956668e-09)
1.30625       	(1.980515e-06 1.344451e-06 -5.796072e-09)	(3.193563e-06 -6.257711e-07 6.421249e-11)	(-1.213048e-06 1.970222e-06 -5.860284e-09)