# Moment      
# CofR        : (0.000000e+00 0.000000e+00 0.000000e+00)
#
# Time        	(total_x total_y total_z)	(pressure_x pressure_y pressure_z)	(viscous_x viscous_y viscous_z)
0.012255      	(-1.461314e-05 -1.264107e-05 -2.253585e-08)	(-1.314697e-05 7.554899e-06 7.643847e-09)	(-1.466174e-06 -2.019597e-05 -3.017970e-08)
0.02451       	(-4.205565e-06 -4.728416e-05 -6.830185e-10)	(-8.878200e-06 -3.053568e-05 1.197556e-09)	(4.672635e-06 -1.674848e-05 -1.880574e-09)
0.036765      	(1.269802e-05 -1.253268e-05 5.461296e-09)	(7.415682e-06 -5.452865e-06 -7.558886e-11)	(5.282343e-06 -7.079817e-06 5.536884e-09)
0.04902       	(6.746877e-06 -1.285274e-05 7.233237e-09)	(2.238243e-06 -7.899457e-06 3.642426e-10)	(4.508634e-06 -4.953284e-06 6.868994e-09)
0.061275      	(8.244639e-06 -9.239231e-06 7.256694e-09)	(4.104942e-06 -5.135445e-06 4.279919e-10)	(4.139697e-06 -4.103786e-06 6.828702e-09)
0.07353       	(7.042170e-06 -7.801060e-06 6.782395e-09)	(3.227463e-06 -4.305288e-06 4.390090e-10)	(3.814707e-06 -3.495771e-06 6.343386e-09)
0.085785      	(7.569225e-06 -7.177758e-06 6.569590e-09)	(3.977093e-06 -4.099342e-06 4.134934e-10)	(3.592132e-06 -3.078417e-06 6.156097e-09)
0.09804       	(7.566599e-06 -6.769955e-06 5.976312e-09)	(4.276118e-06 -4.086121e-06 3.935812e-10)	(3.290481e-06 -2.683834e-06 5.582731e-09)
0.110295      	(7.135968e-06 -6.211330e-06 5.484997e-09)	(4.130346e-06 -3.835913e-06 3.722017e-10)	(3.005622e-06 -2.375417e-06 5.112795e-09)
0.12255       	(6.628888e-06 -5.708124e-06 4.923792e-09)	(3.871883e-06 -3.577664e-06 3.537797e-10)	(2.757005e-06 -2.130459e-06 4.570012e-09)
0.134805      	(6.127159e-06 -5.317484e-06 4.416934e-09)	(3.587596e-06 -3.377430e-06 3.362806e-10)	(2.539564e-06 -1.940054e-06 4.080654e-09)
0.14706       	(5.684476e-06 -5.028154e-06 3.973416e-09)	(3.331229e-06 -3.238207e-06 3.201664e-10)	(2.353247e-06 -1.789947e-06 3.653250e-09)
0.159315      	(5.225110e-06 -4.748738e-06 3.545086e-09)	(3.032566e-06 -3.080621e-06 3.053471e-10)	(2.192544e-06 -1.668117e-06 3.239739e-09)
0.17157       	(4.530088e-06 -4.230164e-06 3.190476e-09)	(2.474804e-06 -2.663226e-06 2.916662e-10)	(2.055284e-06 -1.566939e-06 2.898810e-09)
0.183825      	(4.232712e-06 -4.120567e-06 2.857026e-09)	(2.295709e-06 -2.638859e-06 2.790078e-10)	(1.937003e-06 -1.481707e-06 2.578019e-09)
0.19608       	(4.026483e-06 -4.054098e-06 2.530316e-09)	(2.194680e-06 -2.644544e-06 2.674195e-10)	(1.831803e-06 -1.409554e-06 2.262897e-09)
0.208335      	(3.793342e-06 -3.956201e-06 2.273113e-09)	(2.054624e-06 -2.612787e-06 2.550010e-10)	(1.738719e-06 -1.343414e-06 2.018112e-09)
0.22059       	(3.572842e-06 -3.891650e-06 2.008573e-09)	(1.916520e-06 -2.604564e-06 2.447153e-10)	(1.656322e-06 -1.287086e-06 1.763857e-09)
0.232845      	(3.338452e-06 -3.787207e-06 1.765015e-09)	(1.753036e-06 -2.546387e-06 2.362420e-10)	(1.585416e-06 -1.240820e-06 1.528773e-09)
0.2451        	(3.173068e-06 -3.741194e-06 1.555533e-09)	(1.666141e-06 -2.550990e-06 2.283429e-10)	(1.506928e-06 -1.190204e-06 1.327190e-09)
0.257355      	(2.998602e-06 -3.692115e-06 1.373506e-09)	(1.562140e-06 -2.549972e-06 2.209087e-10)	(1.436463e-06 -1.142143e-06 1.152597e-09)
0.26961       	(2.810022e-06 -3.599643e-06 1.212828e-09)	(1.435096e-06 -2.496854e-06 2.146183e-10)	(1.374926e-06 -1.102790e-06 9.982092e-10)
0.281865      	(2.672855e-06 -3.562933e-06 1.037220e-09)	(1.354890e-06 -2.493922e-06 2.079975e-10)	(1.317964e-06 -1.069010e-06 8.292222e-10)
0.29412       	(2.589071e-06 -3.535861e-06 9.190334e-10)	(1.321138e-06 -2.496815e-06 2.027776e-10)	(1.267934e-06 -1.039045e-06 7.162558e-10)
0.306375      	(2.472175e-06 -3.494029e-06 8.110731e-10)	(1.250158e-06 -2.483715e-06 1.969420e-10)	(1.222017e-06 -1.010314e-06 6.141310e-10)
0.31863       	(2.354908e-06 -3.455536e-06 6.796049e-10)	(1.176095e-06 -2.471418e-06 1.920531e-10)	(1.178813e-06 -9.841183e-07 4.875519e-10)
0.330885      	(2.269257e-06 -3.436592e-06 5.640968e-10)	(1.129747e-06 -2.476182e-06 1.873714e-10)	(1.139511e-06 -9.604095e-07 3.767254e-10)
0.34314       	(2.226240e-06 -3.413441e-06 4.825257e-10)	(1.121700e-06 -2.474735e-06 1.826484e-10)	(1.104540e-06 -9.387055e-07 2.998772e-10)
0.355395      	(2.079282e-06 -3.377618e-06 4.117883e-10)	(1.007005e-06 -2.459505e-06 1.792376e-10)	(1.072277e-06 -9.181131e-07 2.325507e-10)
0.36765       	(2.070045e-06 -3.373566e-06 3.286601e-10)	(1.034786e-06 -2.479018e-06 1.772391e-10)	(1.035259e-06 -8.945482e-07 1.514211e-10)
0.379905      	(1.990583e-06 -3.345222e-06 2.570038e-10)	(9.918969e-07 -2.475011e-06 1.770296e-10)	(9.986857e-07 -8.702106e-07 7.997416e-11)
0.39216       	(1.988229e-06 -3.350539e-06 1.975829e-10)	(1.021943e-06 -2.493565e-06 1.722239e-10)	(9.662859e-07 -8.569739e-07 2.535899e-11)
0.404415      	(1.846290e-06 -3.304407e-06 1.631533e-10)	(9.073026e-07 -2.462193e-06 1.698166e-10)	(9.389877e-07 -8.422134e-07 -6.663339e-12)
0.41667       	(1.833225e-06 -3.315252e-06 1.120374e-10)	(9.211057e-07 -2.487449e-06 1.676219e-10)	(9.121192e-07 -8.278027e-07 -5.558448e-11)
0.428925      	(1.823990e-06 -3.284761e-06 5.751248e-11)	(9.395922e-07 -2.469762e-06 1.658227e-10)	(8.843981e-07 -8.149985e-07 -1.083102e-10)
0.44118       	(1.760881e-06 -3.290997e-06 2.006666e-11)	(8.978422e-07 -2.489723e-06 1.641762e-10)	(8.630383e-07 -8.012740e-07 -1.441096e-10)
0.453435      	(1.719362e-06 -3.248464e-06 -1.449584e-11)	(8.782863e-07 -2.460029e-06 1.610768e-10)	(8.410760e-07 -7.884356e-07 -1.755726e-10)
0.46569       	(1.647998e-06 -3.234603e-06 -2.659891e-11)	(8.274263e-07 -2.457385e-06 1.586342e-10)	(8.205720e-07 -7.772179e-07 -1.852331e-10)
0.477945      	(1.687793e-06 -3.241645e-06 -5.011083e-11)	(8.864829e-07 -2.476173e-06 1.576779e-10)	(8.013103e-07 -7.654728e-07 -2.077887e-10)
0.4902        	(1.647287e-06 -3.268732e-06 -9.296991e-11)	(8.673072e-07 -2.515343e-06 1.576697e-10)	(7.799793e-07 -7.533889e-07 -2.506396e-10)
0.502455      	(1.624298e-06 -3.253395e-06 -1.277573e-10)	(8.649523e-07 -2.511816e-06 1.563449e-10)	(7.593460e-07 -7.415785e-07 -2.841022e-10)
0.51471       	(1.559188e-06 -3.252589e-06 -1.530889e-10)	(8.201542e-07 -2.521923e-06 1.580084e-10)	(7.390333e-07 -7.306664e-07 -3.110973e-10)
0.526965      	(1.582253e-06 -3.229079e-06 -1.481664e-10)	(8.632103e-07 -2.507026e-06 1.548254e-10)	(7.190430e-07 -7.220534e-07 -3.029918e-10)
0.53922       	(1.524159e-06 -3.229548e-06 -1.550333e-10)	(8.243105e-07 -2.516350e-06 1.520497e-10)	(6.998485e-07 -7.131984e-07 -3.070830e-10)
0.551475      	(1.531903e-06 -3.226242e-06 -1.734375e-10)	(8.496498e-07 -2.520970e-06 1.491421e-10)	(6.822533e-07 -7.052727e-07 -3.225796e-10)
0.56373       	(1.536895e-06 -3.203499e-06 -1.914298e-10)	(8.712660e-07 -2.506677e-06 1.487589e-10)	(6.656288e-07 -6.968222e-07 -3.401887e-10)
0.575985      	(1.473032e-06 -3.157834e-06 -1.990073e-10)	(8.249580e-07 -2.472390e-06 1.539028e-10)	(6.480738e-07 -6.854447e-07 -3.529101e-10)
0.58824       	(1.487544e-06 -3.180585e-06 -2.131377e-10)	(8.551451e-07 -2.503569e-06 1.524959e-10)	(6.323987e-07 -6.770165e-07 -3.656337e-10)
0.600495      	(1.413605e-06 -3.152971e-06 -2.172327e-10)	(7.970543e-07 -2.485407e-06 1.521936e-10)	(6.165506e-07 -6.675641e-07 -3.694263e-10)
0.61275       	(1.448565e-06 -3.137208e-06 -2.196232e-10)	(8.466902e-07 -2.478928e-06 1.515716e-10)	(6.018748e-07 -6.582804e-07 -3.711948e-10)
0.625005      	(1.414042e-06 -3.115838e-06 -2.225343e-10)	(8.269525e-07 -2.467682e-06 1.522508e-10)	(5.870896e-07 -6.481565e-07 -3.747851e-10)
0.63726       	(1.425105e-06 -3.099804e-06 -2.268105e-10)	(8.517851e-07 -2.460752e-06 1.551206e-10)	(5.733203e-07 -6.390516e-07 -3.819311e-10)
0.649515      	(1.390601e-06 -3.082900e-06 -2.358160e-10)	(8.310132e-07 -2.453067e-06 1.537197e-10)	(5.595876e-07 -6.298334e-07 -3.895357e-10)
0.66177       	(1.400769e-06 -3.081169e-06 -2.443311e-10)	(8.546264e-07 -2.459483e-06 1.518578e-10)	(5.461429e-07 -6.216865e-07 -3.961889e-10)
0.674025      	(1.341983e-06 -3.055318e-06 -2.471249e-10)	(8.091179e-07 -2.441976e-06 1.508631e-10)	(5.328650e-07 -6.133418e-07 -3.979880e-10)
0.68628       	(1.369407e-06 -3.034832e-06 -2.467125e-10)	(8.486966e-07 -2.429390e-06 1.501601e-10)	(5.207103e-07 -6.054416e-07 -3.968727e-10)
0.698535      	(1.357857e-06 -3.034806e-06 -2.447747e-10)	(8.490414e-07 -2.436525e-06 1.494241e-10)	(5.088154e-07 -5.982812e-07 -3.941987e-10)
0.71079       	(1.329022e-06 -3.010215e-06 -2.424011e-10)	(8.319165e-07 -2.419385e-06 1.488083e-10)	(4.971054e-07 -5.908298e-07 -3.912093e-10)
0.723045      	(1.316809e-06 -3.008202e-06 -2.414620e-10)	(8.308309e-07 -2.424315e-06 1.482212e-10)	(4.859782e-07 -5.838868e-07 -3.896832e-10)
0.7353        	(1.321025e-06 -2.991150e-06 -2.400127e-10)	(8.455248e-07 -2.414287e-06 1.476864e-10)	(4.755004e-07 -5.768627e-07 -3.876991e-10)
0.747555      	(1.328493e-06 -2.976951e-06 -2.398684e-10)	(8.631529e-07 -2.406749e-06 1.471159e-10)	(4.653403e-07 -5.702018e-07 -3.869842e-10)
0.75981       	(1.318957e-06 -2.957163e-06 -2.430601e-10)	(8.633992e-07 -2.393464e-06 1.465064e-10)	(4.555580e-07 -5.636986e-07 -3.895665e-10)
0.772065      	(1.317475e-06 -2.957429e-06 -2.319246e-10)	(8.716948e-07 -2.400142e-06 1.460728e-10)	(4.457804e-07 -5.572871e-07 -3.779974e-10)
0.78432       	(1.309995e-06 -2.934173e-06 -2.262544e-10)	(8.742114e-07 -2.383141e-06 1.456960e-10)	(4.357839e-07 -5.510326e-07 -3.719504e-10)
0.796575      	(1.352939e-06 -2.912888e-06 -2.375677e-10)	(9.263530e-07 -2.368147e-06 1.451645e-10)	(4.265861e-07 -5.447410e-07 -3.827322e-10)
0.80883       	(1.311450e-06 -2.905534e-06 -2.385245e-10)	(8.942918e-07 -2.366859e-06 1.445846e-10)	(4.171586e-07 -5.386747e-07 -3.831091e-10)
0.821085      	(1.310647e-06 -2.895003e-06 -2.276046e-10)	(9.025374e-07 -2.362166e-06 1.439237e-10)	(4.081096e-07 -5.328375e-07 -3.715283e-10)
0.83334       	(1.289463e-06 -2.878576e-06 -2.222807e-10)	(8.902277e-07 -2.351642e-06 1.430217e-10)	(3.992351e-07 -5.269345e-07 -3.653024e-10)
0.845595      	(1.305550e-06 -2.866068e-06 -2.203886e-10)	(9.149236e-07 -2.344981e-06 1.430976e-10)	(3.906260e-07 -5.210868e-07 -3.634862e-10)
0.85785       	(1.343779e-06 -2.853112e-06 -2.179395e-10)	(9.604236e-07 -2.337406e-06 1.434765e-10)	(3.833551e-07 -5.157061e-07 -3.614159e-10)
0.870105      	(1.269824e-06 -2.826551e-06 -2.167926e-10)	(8.959437e-07 -2.317586e-06 1.429826e-10)	(3.738799e-07 -5.089649e-07 -3.597751e-10)
0.88236       	(1.292195e-06 -2.821286e-06 -2.147563e-10)	(9.257066e-07 -2.317678e-06 1.420097e-10)	(3.664886e-07 -5.036073e-07 -3.567660e-10)
0.894615      	(1.292147e-06 -2.806414e-06 -2.100342e-10)	(9.328757e-07 -2.308029e-06 1.414882e-10)	(3.592712e-07 -4.983848e-07 -3.515225e-10)
0.90687       	(1.326432e-06 -2.791458e-06 -2.042176e-10)	(9.741139e-07 -2.298637e-06 1.409772e-10)	(3.523185e-07 -4.928208e-07 -3.451949e-10)
0.919125      	(1.290742e-06 -2.777285e-06 -2.004332e-10)	(9.454916e-07 -2.289786e-06 1.403874e-10)	(3.452501e-07 -4.874993e-07 -3.408206e-10)
0.93138       	(1.311372e-06 -2.762529e-06 -1.961568e-10)	(9.730530e-07 -2.280149e-06 1.399158e-10)	(3.383194e-07 -4.823800e-07 -3.360726e-10)
0.943635      	(1.301316e-06 -2.754465e-06 -1.900683e-10)	(9.697180e-07 -2.277136e-06 1.394570e-10)	(3.315980e-07 -4.773294e-07 -3.295253e-10)
0.95589       	(1.319528e-06 -2.740236e-06 -1.843849e-10)	(9.944464e-07 -2.267890e-06 1.388946e-10)	(3.250819e-07 -4.723452e-07 -3.232795e-10)
0.968145      	(1.301424e-06 -2.719514e-06 -1.808050e-10)	(9.828111e-07 -2.252095e-06 1.383475e-10)	(3.186125e-07 -4.674189e-07 -3.191525e-10)
0.9804        	(1.317835e-06 -2.707446e-06 -1.782560e-10)	(1.005011e-06 -2.244961e-06 1.378227e-10)	(3.128243e-07 -4.624854e-07 -3.160787e-10)
0.992655      	(1.313408e-06 -2.693545e-06 -1.761335e-10)	(1.006067e-06 -2.235693e-06 1.373929e-10)	(3.073415e-07 -4.578514e-07 -3.135264e-10)
1.00491       	(1.296020e-06 -2.669612e-06 -1.724861e-10)	(9.944395e-07 -2.216503e-06 1.369309e-10)	(3.015801e-07 -4.531084e-07 -3.094170e-10)
1.01717       	(1.334092e-06 -2.670195e-06 -1.684454e-10)	(1.037733e-06 -2.221592e-06 1.364278e-10)	(2.963591e-07 -4.486023e-07 -3.048732e-10)
1.02942       	(1.346698e-06 -2.649590e-06 -1.620872e-10)	(1.055534e-06 -2.205399e-06 1.359507e-10)	(2.911637e-07 -4.441909e-07 -2.980379e-10)
1.04168       	(1.342288e-06 -2.639791e-06 -1.564186e-10)	(1.056591e-06 -2.200049e-06 1.354475e-10)	(2.856970e-07 -4.397415e-07 -2.918661e-10)
1.05393       	(1.303820e-06 -2.626844e-06 -1.500567e-10)	(1.023746e-06 -2.191422e-06 1.349317e-10)	(2.800742e-07 -4.354220e-07 -2.849884e-10)
1.06619       	(1.357250e-06 -2.615202e-06 -1.439982e-10)	(1.082212e-06 -2.184112e-06 1.344008e-10)	(2.750371e-07 -4.310896e-07 -2.783990e-10)
1.07844       	(1.351108e-06 -2.594780e-06 -1.409779e-10)	(1.081021e-06 -2.168008e-06 1.338960e-10)	(2.700865e-07 -4.267726e-07 -2.748739e-10)
1.0907        	(1.381909e-06 -2.581474e-06 -1.382858e-10)	(1.116732e-06 -2.158918e-06 1.333967e-10)	(2.651767e-07 -4.225559e-07 -2.716825e-10)
1.10295       	(1.372070e-06 -2.581096e-06 -1.335657e-10)	(1.111965e-06 -2.162608e-06 1.328663e-10)	(2.601047e-07 -4.184884e-07 -2.664319e-10)
1.11521       	(1.346322e-06 -2.549379e-06 -1.292582e-10)	(1.091402e-06 -2.135184e-06 1.323401e-10)	(2.549199e-07 -4.141946e-07 -2.615983e-10)
1.12746       	(1.374837e-06 -2.541339e-06 -1.260452e-10)	(1.124661e-06 -2.131319e-06 1.318171e-10)	(2.501756e-07 -4.100192e-07 -2.578623e-10)
1.13971       	(1.391132e-06 -2.523622e-06 -1.240114e-10)	(1.145389e-06 -2.117706e-06 1.312901e-10)	(2.457425e-07 -4.059164e-07 -2.553015e-10)
1.15197       	(1.369049e-06 -2.517232e-06 -1.234471e-10)	(1.127976e-06 -2.115350e-06 1.307640e-10)	(2.410729e-07 -4.018824e-07 -2.542111e-10)
1.16422       	(1.398063e-06 -2.500921e-06 -1.205837e-10)	(1.161273e-06 -2.103027e-06 1.302479e-10)	(2.367906e-07 -3.978942e-07 -2.508317e-10)
1.17648       	(1.400920e-06 -2.489455e-06 -1.163423e-10)	(1.168347e-06 -2.095493e-06 1.297292e-10)	(2.325724e-07 -3.939616e-07 -2.460715e-10)
1.18873       	(1.370605e-06 -2.469865e-06 -1.140468e-10)	(1.142461e-06 -2.079815e-06 1.292045e-10)	(2.281435e-07 -3.900499e-07 -2.432513e-10)
1.20099       	(1.381687e-06 -2.459741e-06 -1.129176e-10)	(1.157660e-06 -2.073531e-06 1.286681e-10)	(2.240270e-07 -3.862100e-07 -2.415857e-10)
1.21324       	(1.397833e-06 -2.449135e-06 -1.120380e-10)	(1.177636e-06 -2.066668e-06 1.281336e-10)	(2.201965e-07 -3.824672e-07 -2.401715e-10)
1.2255        	(1.439084e-06 -2.432506e-06 -1.078349e-10)	(1.222338e-06 -2.053745e-06 1.275884e-10)	(2.167459e-07 -3.787601e-07 -2.354233e-10)
1.23775       	(1.418582e-06 -2.423685e-06 -1.029887e-10)	(1.205684e-06 -2.048548e-06 1.270495e-10)	(2.128988e-07 -3.751373e-07 -2.300382e-10)
1.25001       	(1.401466e-06 -2.405599e-06 -9.877210e-11)	(1.192721e-06 -2.034131e-06 1.265085e-10)	(2.087444e-07 -3.714681e-07 -2.252806e-10)
1.26226       	(1.431713e-06 -2.394595e-06 -9.528260e-11)	(1.226590e-06 -2.026837e-06 1.259954e-10)	(2.051223e-07 -3.677580e-07 -2.212780e-10)
1.27452       	(1.444449e-06 -2.374551e-06 -9.315678e-11)	(1.242830e-06 -2.010435e-06 1.254081e-10)	(2.016192e-07 -3.641158e-07 -2.185649e-10)
1.28677       	(1.440575e-06 -2.359694e-06 -9.049438e-11)	(1.242551e-06 -1.999127e-06 1.248498e-10)	(1.980241e-07 -3.605664e-07 -2.153441e-10)
1.29903       	(1.445426e-06 -2.359501e-06 -8.828131e-11)	(1.250968e-06 -2.002355e-06 1.242886e-10)	(1.944583e-07 -3.571455e-07 -2.125699e-10)
1.31128       	(1.438099e-06 -2.336748e-06 -8.683182e-11)	(1.247134e-06 -1.983133e-06 1.236913e-10)	(1.909643e-07 -3.536143e-07 -2.105231e-10)
1.32354       	(1.472512e-06 -2.322195e-06 -8.500372e-11)	(1.284636e-06 -1.972020e-06 1.232239e-10)	(1.878761e-07 -3.501743e-07 -2.082277e-10)
1.33579       	(1.441526e-06 -2.307928e-06 -8.336400e-11)	(1.256999e-06 -1.961103e-06 1.226597e-10)	(1.845267e-07 -3.468255e-07 -2.060237e-10)
1.34805       	(1.461066e-06 -2.291915e-06 -8.178520e-11)	(1.279754e-06 -1.948406e-06 1.221301e-10)	(1.813119e-07 -3.435087e-07 -2.039153e-10)
1.3603        	(1.476405e-06 -2.283047e-06 -8.029959e-11)	(1.298097e-06 -1.942795e-06 1.215838e-10)	(1.783076e-07 -3.402524e-07 -2.018834e-10)
1.37256       	(1.466116e-06 -2.265233e-06 -7.944995e-11)	(1.290685e-06 -1.928218e-06 1.210253e-10)	(1.754309e-07 -3.370146e-07 -2.004752e-10)
1.38481       	(1.513464e-06 -2.261347e-06 -7.762921e-11)	(1.340820e-06 -1.927543e-06 1.204803e-10)	(1.726439e-07 -3.338036e-07 -1.981095e-10)
1.39707       	(1.474302e-06 -2.241917e-06 -7.631224e-11)	(1.304772e-06 -1.911330e-06 1.199306e-10)	(1.695299e-07 -3.305871e-07 -1.962428e-10)
1.40932       	(1.507138e-06 -2.228785e-06 -7.499828e-11)	(1.340379e-06 -1.901367e-06 1.193778e-10)	(1.667592e-07 -3.274186e-07 -1.943760e-10)
1.42158       	(1.480958e-06 -2.210762e-06 -7.392086e-11)	(1.317353e-06 -1.886755e-06 1.187933e-10)	(1.636048e-07 -3.240075e-07 -1.927142e-10)
1.43383       	(1.534087e-06 -2.204204e-06 -7.240874e-11)	(1.373085e-06 -1.883296e-06 1.182871e-10)	(1.610012e-07 -3.209084e-07 -1.906959e-10)
1.44609       	(1.484350e-06 -2.183709e-06 -2.620425e-12)	(1.326346e-06 -1.865857e-06 1.177330e-10)	(1.580036e-07 -3.178516e-07 -1.203534e-10)
1.45834       	(1.538675e-06 -2.187497e-06 -3.030340e-12)	(1.383207e-06 -1.872587e-06 1.171609e-10)	(1.554676e-07 -3.149109e-07 -1.201912e-10)
1.4706        	(1.508484e-06 -2.173649e-06 -3.016152e-11)	(1.355789e-06 -1.861767e-06 1.166103e-10)	(1.526945e-07 -3.118819e-07 -1.467718e-10)
1.48285       	(1.536766e-06 -2.162122e-06 -3.991137e-11)	(1.386578e-06 -1.853282e-06 1.160344e-10)	(1.501878e-07 -3.088399e-07 -1.559457e-10)
1.49511       	(1.545187e-06 -2.143975e-06 -4.195100e-11)	(1.397502e-06 -1.838212e-06 1.154886e-10)	(1.476852e-07 -3.057632e-07 -1.574396e-10)
1.50736       	(1.546854e-06 -2.133004e-06 -3.953906e-11)	(1.401934e-06 -1.830319e-06 1.149484e-10)	(1.449204e-07 -3.026852e-07 -1.544874e-10)
1.51962       	(1.538159e-06 -2.119632e-06 -3.678248e-11)	(1.395755e-06 -1.819848e-06 1.143675e-10)	(1.424037e-07 -2.997834e-07 -1.511500e-10)
1.531875      	(1.554151e-06 -2.110860e-06 -3.516636e-11)	(1.414094e-06 -1.813949e-06 1.138197e-10)	(1.400576e-07 -2.969108e-07 -1.489860e-10)
1.54413       	(1.560803e-06 -2.091716e-06 -3.493975e-11)	(1.423036e-06 -1.797758e-06 1.132566e-10)	(1.377666e-07 -2.939582e-07 -1.481963e-10)
1.556385      	(1.562750e-06 -2.089199e-06 -3.584002e-11)	(1.427374e-06 -1.798124e-06 1.126946e-10)	(1.353758e-07 -2.910749e-07 -1.485346e-10)
1.56864       	(1.571601e-06 -2.068380e-06 -3.742223e-11)	(1.438497e-06 -1.780234e-06 1.121359e-10)	(1.331034e-07 -2.881462e-07 -1.495581e-10)
1.580895      	(1.585662e-06 -2.062591e-06 -3.953552e-11)	(1.454730e-06 -1.777316e-06 1.115842e-10)	(1.309323e-07 -2.852754e-07 -1.511197e-10)
1.59315       	(1.587180e-06 -2.048517e-06 -4.106826e-11)	(1.458546e-06 -1.766089e-06 1.110312e-10)	(1.286339e-07 -2.824279e-07 -1.520995e-10)
1.605405      	(1.570489e-06 -2.027536e-06 -4.392240e-11)	(1.444223e-06 -1.747986e-06 1.104811e-10)	(1.262663e-07 -2.795505e-07 -1.544035e-10)
1.61766       	(1.608189e-06 -2.026728e-06 -4.634095e-11)	(1.483909e-06 -1.749938e-06 1.099286e-10)	(1.242802e-07 -2.767899e-07 -1.562695e-10)
1.629915      	(1.584161e-06 -1.993961e-06 -4.818048e-11)	(1.462006e-06 -1.720021e-06 1.093744e-10)	(1.221545e-07 -2.739397e-07 -1.575548e-10)
1.64217       	(1.611552e-06 -1.998287e-06 -4.990263e-11)	(1.491365e-06 -1.727031e-06 1.088171e-10)	(1.201873e-07 -2.712561e-07 -1.587197e-10)
1.654425      	(1.635737e-06 -1.983181e-06 -5.127263e-11)	(1.517364e-06 -1.714573e-06 1.082605e-10)	(1.183725e-07 -2.686083e-07 -1.595332e-10)
1.66668       	(1.628589e-06 -1.968413e-06 -5.232929e-11)	(1.512197e-06 -1.702443e-06 1.077045e-10)	(1.163920e-07 -2.659703e-07 -1.600338e-10)
1.678935      	(1.618348e-06 -1.951971e-06 -5.340876e-11)	(1.504177e-06 -1.688763e-06 1.070915e-10)	(1.141709e-07 -2.632087e-07 -1.605003e-10)
1.69119       	(1.645823e-06 -1.941532e-06 -5.398091e-11)	(1.533470e-06 -1.680820e-06 1.065692e-10)	(1.123530e-07 -2.607122e-07 -1.605501e-10)
1.703445      	(1.650876e-06 -1.927612e-06 -5.461720e-11)	(1.540317e-06 -1.669352e-06 1.060098e-10)	(1.105588e-07 -2.582595e-07 -1.606270e-10)
1.7157        	(1.631401e-06 -1.914392e-06 -5.496310e-11)	(1.522814e-06 -1.658614e-06 1.054539e-10)	(1.085875e-07 -2.557785e-07 -1.604170e-10)
1.727955      	(1.678297e-06 -1.905374e-06 -5.513444e-11)	(1.571239e-06 -1.652063e-06 1.048899e-10)	(1.070583e-07 -2.533110e-07 -1.600243e-10)
1.74021       	(1.615931e-06 -1.892227e-06 -5.562982e-11)	(1.510972e-06 -1.641350e-06 1.043393e-10)	(1.049585e-07 -2.508768e-07 -1.599691e-10)
1.752465      	(1.668662e-06 -1.880111e-06 -5.578035e-11)	(1.565108e-06 -1.631616e-06 1.037852e-10)	(1.035537e-07 -2.484949e-07 -1.595655e-10)
1.76472       	(1.693401e-06 -1.865782e-06 -5.499543e-11)	(1.591074e-06 -1.619842e-06 1.031909e-10)	(1.023268e-07 -2.459397e-07 -1.581863e-10)
1.776975      	(1.659545e-06 -1.856355e-06 -5.590028e-11)	(1.559071e-06 -1.612789e-06 1.026610e-10)	(1.004742e-07 -2.435665e-07 -1.585613e-10)
1.78923       	(1.689958e-06 -1.841839e-06 -5.679010e-11)	(1.591072e-06 -1.600691e-06 1.020972e-10)	(9.888631e-08 -2.411484e-07 -1.588873e-10)
1.801485      	(1.706276e-06 -1.832363e-06 -5.713971e-11)	(1.608871e-06 -1.593586e-06 1.015411e-10)	(9.740561e-08 -2.387772e-07 -1.586808e-10)
1.81374       	(1.670211e-06 -1.813592e-06 -5.759209e-11)	(1.574600e-06 -1.577165e-06 1.009790e-10)	(9.561041e-08 -2.364275e-07 -1.585711e-10)
1.825995      	(1.705489e-06 -1.806570e-06 -5.805020e-11)	(1.611294e-06 -1.572409e-06 1.004196e-10)	(9.419460e-08 -2.341602e-07 -1.584698e-10)
1.83825       	(1.708273e-06 -1.792099e-06 -5.844702e-11)	(1.615489e-06 -1.560224e-06 9.985810e-11)	(9.278427e-08 -2.318745e-07 -1.583051e-10)
1.850505      	(1.700878e-06 -1.782018e-06 -5.903623e-11)	(1.609634e-06 -1.552382e-06 9.924855e-11)	(9.124465e-08 -2.296362e-07 -1.582848e-10)
1.86276       	(1.720075e-06 -1.768708e-06 -5.961263e-11)	(1.630219e-06 -1.541313e-06 9.868807e-11)	(8.985608e-08 -2.273950e-07 -1.583007e-10)
1.875015      	(1.733235e-06 -1.755930e-06 -6.027195e-11)	(1.644670e-06 -1.530804e-06 9.808606e-11)	(8.856495e-08 -2.251253e-07 -1.583580e-10)
1.88727       	(1.725069e-06 -1.741525e-06 -6.146395e-11)	(1.637923e-06 -1.518663e-06 9.753431e-11)	(8.714616e-08 -2.228622e-07 -1.589983e-10)
1.899525      	(1.736446e-06 -1.731413e-06 -6.230167e-11)	(1.650719e-06 -1.510785e-06 9.697998e-11)	(8.572684e-08 -2.206276e-07 -1.592817e-10)
1.91178       	(1.741742e-06 -1.716413e-06 -6.281590e-11)	(1.657450e-06 -1.498063e-06 9.643074e-11)	(8.429197e-08 -2.183493e-07 -1.592466e-10)
1.924035      	(1.744871e-06 -1.707120e-06 -6.405750e-11)	(1.662108e-06 -1.491088e-06 9.587669e-11)	(8.276282e-08 -2.160312e-07 -1.599342e-10)
1.93629       	(1.750214e-06 -1.690191e-06 -6.492046e-11)	(1.668850e-06 -1.476537e-06 9.532607e-11)	(8.136384e-08 -2.136542e-07 -1.602465e-10)
1.948545      	(1.748153e-06 -1.676444e-06 -6.554624e-11)	(1.668269e-06 -1.465201e-06 9.476689e-11)	(7.988336e-08 -2.112437e-07 -1.603131e-10)
1.9608        	(1.764943e-06 -1.658151e-06 -6.620931e-11)	(1.686478e-06 -1.449351e-06 9.421465e-11)	(7.846522e-08 -2.088006e-07 -1.604240e-10)
1.973055      	(1.767131e-06 -1.661777e-06 -6.706362e-11)	(1.690075e-06 -1.455254e-06 9.366478e-11)	(7.705603e-08 -2.065233e-07 -1.607284e-10)
1.98531       	(1.772198e-06 -1.649072e-06 -6.800260e-11)	(1.696594e-06 -1.444849e-06 9.310651e-11)	(7.560449e-08 -2.042228e-07 -1.611091e-10)
1.997565      	(1.772412e-06 -1.625812e-06 -6.902383e-11)	(1.698228e-06 -1.424004e-06 9.256000e-11)	(7.418465e-08 -2.018087e-07 -1.615838e-10)
2.00982       	(1.762927e-06 -1.618081e-06 -7.005457e-11)	(1.690263e-06 -1.418567e-06 9.199949e-11)	(7.266377e-08 -1.995137e-07 -1.620541e-10)
2.022075      	(1.783205e-06 -1.617557e-06 -7.112616e-11)	(1.711703e-06 -1.420194e-06 9.143959e-11)	(7.150136e-08 -1.973626e-07 -1.625658e-10)
2.03433       	(1.818899e-06 -1.592341e-06 -7.233739e-11)	(1.748255e-06 -1.397218e-06 9.088106e-11)	(7.064411e-08 -1.951235e-07 -1.632185e-10)
2.046585      	(1.783847e-06 -1.586529e-06 -7.254205e-11)	(1.714651e-06 -1.393529e-06 9.032279e-11)	(6.919519e-08 -1.929995e-07 -1.628648e-10)
2.05884       	(1.803953e-06 -1.564522e-06 -7.325594e-11)	(1.735985e-06 -1.373680e-06 8.976043e-11)	(6.796834e-08 -1.908418e-07 -1.630164e-10)
2.071095      	(1.811686e-06 -1.551826e-06 -7.425486e-11)	(1.744689e-06 -1.363017e-06 8.920429e-11)	(6.699745e-08 -1.888096e-07 -1.634592e-10)
2.08335       	(1.804146e-06 -1.551859e-06 -7.524033e-11)	(1.738242e-06 -1.364925e-06 8.864806e-11)	(6.590472e-08 -1.869341e-07 -1.638884e-10)
2.095605      	(1.820703e-06 -1.532340e-06 -7.635607e-11)	(1.755679e-06 -1.347367e-06 8.809500e-11)	(6.502393e-08 -1.849729e-07 -1.644511e-10)
2.10786       	(1.839505e-06 -1.521943e-06 -7.710625e-11)	(1.775258e-06 -1.338948e-06 8.753879e-11)	(6.424702e-08 -1.829949e-07 -1.646450e-10)
2.120115      	(1.803483e-06 -1.512186e-06 -7.795484e-11)	(1.740407e-06 -1.331110e-06 8.697727e-11)	(6.307693e-08 -1.810763e-07 -1.649321e-10)
2.13237       	(1.845273e-06 -1.504718e-06 -7.887456e-11)	(1.782998e-06 -1.325536e-06 8.642032e-11)	(6.227533e-08 -1.791826e-07 -1.652949e-10)
2.144625      	(1.830800e-06 -1.490392e-06 -8.006774e-11)	(1.769396e-06 -1.313132e-06 8.586692e-11)	(6.140346e-08 -1.772599e-07 -1.659347e-10)
2.15688       	(1.832531e-06 -1.470539e-06 -8.129771e-11)	(1.771976e-06 -1.295215e-06 8.530317e-11)	(6.055466e-08 -1.753242e-07 -1.666009e-10)
2.169135      	(1.847235e-06 -1.464689e-06 -8.232856e-11)	(1.787461e-06 -1.291226e-06 8.475046e-11)	(5.977416e-08 -1.734638e-07 -1.670790e-10)
2.18139       	(1.854343e-06 -1.455985e-06 -8.330207e-11)	(1.795318e-06 -1.284312e-06 8.419823e-11)	(5.902476e-08 -1.716730e-07 -1.675003e-10)
2.193645      	(1.866820e-06 -1.439170e-06 -8.451263e-11)	(1.808420e-06 -1.269354e-06 8.365422e-11)	(5.839951e-08 -1.698155e-07 -1.681669e-10)
2.2059        	(1.862919e-06 -1.430125e-06 -8.566469e-11)	(1.805316e-06 -1.262112e-06 8.309319e-11)	(5.760311e-08 -1.680125e-07 -1.687579e-10)
2.218155      	(1.854097e-06 -1.419601e-06 -8.639279e-11)	(1.797323e-06 -1.253353e-06 8.253121e-11)	(5.677348e-08 -1.662478e-07 -1.689240e-10)
2.23041       	(1.891115e-06 -1.407240e-06 -8.742547e-11)	(1.834831e-06 -1.242767e-06 8.197991e-11)	(5.628363e-08 -1.644731e-07 -1.694054e-10)
2.242665      	(1.868533e-06 -1.395809e-06 -8.920344e-11)	(1.813014e-06 -1.233077e-06 8.142385e-11)	(5.551918e-08 -1.627318e-07 -1.706273e-10)
2.25492       	(1.918872e-06 -1.382204e-06 -9.043236e-11)	(1.863807e-06 -1.221211e-06 8.087096e-11)	(5.506482e-08 -1.609928e-07 -1.713033e-10)
2.267175      	(1.846692e-06 -1.376622e-06 -9.178447e-11)	(1.792705e-06 -1.217273e-06 8.032216e-11)	(5.398619e-08 -1.593489e-07 -1.721066e-10)
2.27943       	(1.904154e-06 -1.361598e-06 -9.314070e-11)	(1.850693e-06 -1.203963e-06 7.976181e-11)	(5.346128e-08 -1.576348e-07 -1.729025e-10)
2.291685      	(1.894751e-06 -1.351763e-06 -9.437620e-11)	(1.841774e-06 -1.195829e-06 7.921154e-11)	(5.297714e-08 -1.559337e-07 -1.735877e-10)
2.30394       	(1.905990e-06 -1.339045e-06 -9.546372e-11)	(1.853620e-06 -1.184795e-06 7.865824e-11)	(5.236972e-08 -1.542493e-07 -1.741220e-10)
2.316195      	(1.890710e-06 -1.327913e-06 -9.663124e-11)	(1.839031e-06 -1.175345e-06 7.809989e-11)	(5.167906e-08 -1.525677e-07 -1.747311e-10)
2.32845       	(1.926194e-06 -1.319365e-06 -9.775364e-11)	(1.874890e-06 -1.168434e-06 7.755986e-11)	(5.130432e-08 -1.509317e-07 -1.753135e-10)
2.340705      	(1.913539e-06 -1.305890e-06 -9.938008e-11)	(1.862818e-06 -1.156606e-06 7.700507e-11)	(5.072048e-08 -1.492845e-07 -1.763852e-10)
2.35296       	(1.934140e-06 -1.297791e-06 -1.008290e-10)	(1.883940e-06 -1.150123e-06 7.645741e-11)	(5.020013e-08 -1.476686e-07 -1.772864e-10)
2.365215      	(1.920833e-06 -1.283389e-06 -1.023636e-10)	(1.871220e-06 -1.137380e-06 7.590409e-11)	(4.961312e-08 -1.460084e-07 -1.782677e-10)
2.37747       	(1.956132e-06 -1.271899e-06 -1.032025e-10)	(1.906843e-06 -1.127510e-06 7.535246e-11)	(4.928895e-08 -1.443896e-07 -1.785549e-10)
2.389725      	(1.932142e-06 -1.262599e-06 -1.042708e-10)	(1.883580e-06 -1.119786e-06 7.480291e-11)	(4.856223e-08 -1.428130e-07 -1.790737e-10)
2.40198       	(1.917714e-06 -1.251446e-06 -1.057330e-10)	(1.869972e-06 -1.110224e-06 7.424984e-11)	(4.774266e-08 -1.412223e-07 -1.799829e-10)
2.414235      	(1.948657e-06 -1.237821e-06 -1.068780e-10)	(1.901267e-06 -1.098188e-06 7.370010e-11)	(4.738975e-08 -1.396336e-07 -1.805781e-10)
2.42649       	(1.940162e-06 -1.228011e-06 -1.084884e-10)	(1.893225e-06 -1.089939e-06 7.315404e-11)	(4.693660e-08 -1.380722e-07 -1.816424e-10)
2.438745      	(1.961272e-06 -1.216125e-06 -1.101448e-10)	(1.914702e-06 -1.079609e-06 7.260908e-11)	(4.657016e-08 -1.365168e-07 -1.827539e-10)
2.451         	(1.950600e-06 -1.206429e-06 -1.119000e-10)	(1.904571e-06 -1.071439e-06 7.206195e-11)	(4.602981e-08 -1.349895e-07 -1.839620e-10)
2.463255      	(1.968838e-06 -1.194726e-06 -1.130765e-10)	(1.923210e-06 -1.061281e-06 7.151104e-11)	(4.562853e-08 -1.334452e-07 -1.845876e-10)
2.47551       	(1.963742e-06 -1.183245e-06 -1.142732e-10)	(1.918628e-06 -1.051353e-06 7.096435e-11)	(4.511359e-08 -1.318910e-07 -1.852376e-10)
2.487765      	(1.961220e-06 -1.173657e-06 -1.158755e-10)	(1.916712e-06 -1.043274e-06 7.041763e-11)	(4.450787e-08 -1.303832e-07 -1.862932e-10)
2.50002       	(1.982494e-06 -1.161119e-06 -1.171509e-10)	(1.938291e-06 -1.032252e-06 6.987404e-11)	(4.420296e-08 -1.288670e-07 -1.870249e-10)
2.512275      	(1.979356e-06 -1.150624e-06 -1.182237e-10)	(1.935559e-06 -1.023238e-06 6.933023e-11)	(4.379778e-08 -1.273856e-07 -1.875539e-10)
2.52453       	(1.978570e-06 -1.140644e-06 -1.195869e-10)	(1.935251e-06 -1.014734e-06 6.879039e-11)	(4.331887e-08 -1.259107e-07 -1.883773e-10)
2.536785      	(1.984082e-06 -1.128035e-06 -1.210007e-10)	(1.941140e-06 -1.003601e-06 6.824930e-11)	(4.294190e-08 -1.244336e-07 -1.892500e-10)
2.54904       	(1.994680e-06 -1.119495e-06 -1.223610e-10)	(1.952097e-06 -9.964913e-07 6.770700e-11)	(4.258363e-08 -1.230041e-07 -1.900680e-10)