# Force       
# CofR        : 0.000000e+00 0.000000e+00 0.000000e+00
#
# Time        	total_x total_y total_z	pressure_x pressure_y pressure_z	viscous_x viscous_y viscous_z
0.004166      	-3.958519e-05 -2.484480e-04 9.147292e+01	-4.947094e-05 -2.635685e-04 9.099516e+01	9.885757e-06 1.512050e-05 4.777596e-01
0.008332      	2.011826e-05 -7.836600e-05 -8.640271e+00	6.813384e-06 -1.047524e-04 -8.884323e+00	1.330488e-05 2.638636e-05 2.440523e-01
0.012498      	-1.016036e-05 -3.263217e-05 -1.229078e+01	-2.784693e-05 -6.425268e-05 -1.245403e+01	1.768657e-05 3.162050e-05 1.632559e-01
0.016664      	-1.582757e-05 -1.979770e-05 -1.573297e+00	-4.009499e-05 -5.387072e-05 -1.671000e+00	2.426742e-05 3.407302e-05 9.770279e-02
0.02083       	2.052747e-06 -4.506749e-05 3.423345e-01	-2.488265e-05 -8.068960e-05 2.740775e-01	2.693540e-05 3.562210e-05 6.825700e-02
0.024996      	1.260838e-05 1.699416e-05 -8.456507e-01	-1.373548e-05 -1.812478e-05 -8.993470e-01	2.634386e-05 3.511894e-05 5.369629e-02
0.029162      	3.235056e-07 -1.517756e-06 -7.906797e-01	-2.366095e-05 -3.403191e-05 -8.329065e-01	2.398445e-05 3.251415e-05 4.222676e-02
0.033328      	-4.119997e-06 -1.025021e-05 -7.035223e-01	-2.637909e-05 -4.124722e-05 -7.369303e-01	2.225909e-05 3.099701e-05 3.340795e-02
0.037494      	2.723274e-06 -4.724641e-07 -6.812942e-01	-1.732635e-05 -2.967008e-05 -7.077978e-01	2.004962e-05 2.919762e-05 2.650365e-02
0.04166       	-2.287340e-06 -4.347922e-06 -6.957501e-01	-2.017112e-05 -3.166264e-05 -7.165237e-01	1.788378e-05 2.731472e-05 2.077363e-02
0.045826      	4.624239e-06 3.486304e-06 -7.069407e-01	-1.099310e-05 -2.178343e-05 -7.227974e-01	1.561734e-05 2.526974e-05 1.585673e-02
0.049992      	-2.720707e-07 -1.600369e-06 -7.270507e-01	-1.409194e-05 -2.516653e-05 -7.386474e-01	1.381987e-05 2.356616e-05 1.159670e-02
0.054158      	-4.025146e-07 -7.566639e-07 -7.466991e-01	-1.293877e-05 -2.301602e-05 -7.545731e-01	1.253625e-05 2.225936e-05 7.873950e-03
0.058324      	1.081877e-06 -1.765778e-06 -7.636388e-01	-1.010689e-05 -2.271516e-05 -7.682181e-01	1.118877e-05 2.094938e-05 4.579301e-03
0.06249       	4.572364e-06 3.298002e-06 -7.812722e-01	-5.509747e-06 -1.648866e-05 -7.829211e-01	1.008211e-05 1.978667e-05 1.648891e-03
0.066656      	-3.776931e-07 -2.116619e-06 -8.004692e-01	-9.649637e-06 -2.088487e-05 -7.995098e-01	9.271944e-06 1.876825e-05 -9.593843e-04
0.070822      	5.945521e-07 -1.777270e-06 -8.176374e-01	-7.847584e-06 -1.943937e-05 -8.143519e-01	8.442136e-06 1.766210e-05 -3.285439e-03
0.074988      	3.743379e-06 1.867722e-06 -8.352251e-01	-3.962043e-06 -1.474205e-05 -8.298716e-01	7.705422e-06 1.660978e-05 -5.353499e-03
0.079154      	2.611811e-06 9.854501e-07 -8.482671e-01	-4.609685e-06 -1.472299e-05 -8.410671e-01	7.221495e-06 1.570844e-05 -7.200016e-03
0.08332       	1.236855e-06 -2.106497e-06 -8.620297e-01	-5.548332e-06 -1.694117e-05 -8.531801e-01	6.785187e-06 1.483467e-05 -8.849611e-03
0.087486      	2.722734e-06 4.284302e-07 -8.751553e-01	-3.684977e-06 -1.357381e-05 -8.648342e-01	6.407712e-06 1.400224e-05 -1.032109e-02
0.091652      	3.513909e-06 1.511986e-06 -8.883227e-01	-2.650149e-06 -1.177620e-05 -8.766877e-01	6.164058e-06 1.328819e-05 -1.163508e-02
0.095818      	3.116724e-06 -8.366008e-07 -8.997951e-01	-2.804524e-06 -1.342607e-05 -8.869841e-01	5.921248e-06 1.258947e-05 -1.281106e-02
0.098943      	4.560601e-06 7.105260e-07 -9.107766e-01	-1.030045e-06 -1.147270e-05 -8.972984e-01	5.590646e-06 1.218323e-05 -1.347824e-02
0.102068      	2.507108e-06 -3.330141e-06 -9.145299e-01	-2.924416e-06 -1.519071e-05 -9.003928e-01	5.431523e-06 1.186056e-05 -1.413704e-02
0.105193      	1.142700e-06 -4.079843e-06 -9.206706e-01	-4.212640e-06 -1.555980e-05 -9.058599e-01	5.355340e-06 1.147995e-05 -1.481071e-02
0.108318      	6.174707e-06 1.918414e-06 -9.283646e-01	9.716779e-07 -9.127599e-06 -9.129284e-01	5.203029e-06 1.104601e-05 -1.543623e-02
0.111443      	5.228833e-06 -1.280537e-06 -9.353202e-01	1.702270e-07 -1.191221e-05 -9.193120e-01	5.058606e-06 1.063168e-05 -1.600823e-02
0.114568      	9.797975e-07 -2.201486e-06 -9.403764e-01	-3.993106e-06 -1.243528e-05 -9.238368e-01	4.972904e-06 1.023380e-05 -1.653955e-02
0.117693      	3.150606e-06 -8.648278e-07 -9.462085e-01	-1.754166e-06 -1.070816e-05 -9.291687e-01	4.904773e-06 9.843330e-06 -1.703988e-02
0.120818      	2.868696e-06 -2.533476e-06 -9.514354e-01	-1.931793e-06 -1.195656e-05 -9.339296e-01	4.800489e-06 9.423085e-06 -1.750584e-02
0.123943      	3.696607e-06 -2.622616e-06 -9.566311e-01	-9.983336e-07 -1.166306e-05 -9.386937e-01	4.694941e-06 9.040447e-06 -1.793737e-02
0.127068      	3.222758e-06 -2.878457e-06 -9.616368e-01	-1.355853e-06 -1.157547e-05 -9.432996e-01	4.578611e-06 8.697011e-06 -1.833715e-02
0.130193      	3.539157e-06 -4.126377e-06 -9.669440e-01	-9.576238e-07 -1.255066e-05 -9.482371e-01	4.496781e-06 8.424288e-06 -1.870693e-02
0.133318      	2.802707e-06 -3.703435e-06 -9.692634e-01	-1.624047e-06 -1.179946e-05 -9.502105e-01	4.426754e-06 8.096024e-06 -1.905291e-02
0.136443      	3.732699e-06 -2.719573e-06 -9.727384e-01	-6.105127e-07 -1.047254e-05 -9.533624e-01	4.343212e-06 7.752970e-06 -1.937598e-02
0.139568      	2.933650e-06 -3.350729e-06 -9.764101e-01	-1.313718e-06 -1.079587e-05 -9.567342e-01	4.247368e-06 7.445146e-06 -1.967593e-02
0.142693      	4.188617e-06 -3.918443e-06 -9.804483e-01	4.535528e-08 -1.105854e-05 -9.604970e-01	4.143261e-06 7.140098e-06 -1.995135e-02
0.145818      	2.411579e-06 -5.654125e-06 -9.843607e-01	-1.619982e-06 -1.249984e-05 -9.641541e-01	4.031561e-06 6.845711e-06 -2.020661e-02
0.148943      	3.291200e-06 -3.836759e-06 -9.876077e-01	-6.237506e-07 -1.039948e-05 -9.671636e-01	3.914950e-06 6.562725e-06 -2.044407e-02
0.152068      	1.726093e-06 -6.592799e-06 -9.906126e-01	-2.049203e-06 -1.290897e-05 -9.699480e-01	3.775296e-06 6.316173e-06 -2.066457e-02
0.155193      	3.997718e-06 -3.738448e-06 -9.936518e-01	3.844224e-07 -9.836506e-06 -9.727826e-01	3.613296e-06 6.098058e-06 -2.086925e-02
0.158318      	3.901183e-06 -3.881786e-06 -9.963025e-01	4.673025e-07 -9.727739e-06 -9.752440e-01	3.433880e-06 5.845952e-06 -2.105848e-02
0.161443      	2.149357e-06 -5.912848e-06 -9.988917e-01	-1.189569e-06 -1.168491e-05 -9.776587e-01	3.338927e-06 5.772060e-06 -2.123304e-02
0.164568      	2.656847e-06 -6.652038e-06 -1.001714e+00	-6.349327e-07 -1.243417e-05 -9.803187e-01	3.291780e-06 5.782131e-06 -2.139525e-02
0.167693      	4.501081e-06 -3.209236e-06 -1.003907e+00	1.334605e-06 -8.793834e-06 -9.823607e-01	3.166477e-06 5.584598e-06 -2.154661e-02
0.170818      	3.477989e-06 -5.105432e-06 -1.005546e+00	4.473466e-07 -1.045978e-05 -9.838580e-01	3.030642e-06 5.354349e-06 -2.168819e-02
0.173943      	2.349577e-06 -5.918367e-06 -1.007301e+00	-5.633590e-07 -1.109270e-05 -9.854813e-01	2.912936e-06 5.174330e-06 -2.182005e-02
0.177068      	3.869157e-06 -4.790824e-06 -1.009107e+00	1.083813e-06 -9.783015e-06 -9.871649e-01	2.785344e-06 4.992192e-06 -2.194236e-02
0.180193      	4.190144e-06 -3.941554e-06 -1.010755e+00	1.521220e-06 -8.756535e-06 -9.886988e-01	2.668924e-06 4.814980e-06 -2.205581e-02
0.183318      	2.379711e-06 -6.251394e-06 -1.012910e+00	-2.001682e-07 -1.091189e-05 -9.907489e-01	2.579879e-06 4.660492e-06 -2.216126e-02
0.186443      	-3.255228e-06 -1.322426e-05 -1.014270e+00	-5.877399e-06 -1.788979e-05 -9.920098e-01	2.622171e-06 4.665536e-06 -2.225968e-02
0.189568      	9.391622e-07 -9.104769e-06 -1.015983e+00	-1.704743e-06 -1.376598e-05 -9.936317e-01	2.643905e-06 4.661215e-06 -2.235097e-02
0.192693      	2.027988e-06 -7.850172e-06 -1.017276e+00	-5.618606e-07 -1.238764e-05 -9.948408e-01	2.589848e-06 4.537468e-06 -2.243529e-02
0.195818      	3.323474e-06 -5.954183e-06 -1.018634e+00	7.792405e-07 -1.037797e-05 -9.961200e-01	2.544234e-06 4.423782e-06 -2.251387e-02
0.198943      	-6.491800e-07 -1.006044e-05 -1.019732e+00	-3.243890e-06 -1.448359e-05 -9.971456e-01	2.594710e-06 4.423145e-06 -2.258678e-02
0.202068      	-3.980560e-06 -1.634470e-05 -1.020641e+00	-6.712555e-06 -2.089831e-05 -9.979869e-01	2.731995e-06 4.553608e-06 -2.265380e-02
0.205193      	4.524638e-06 -3.327933e-06 -1.021710e+00	1.791334e-06 -7.788181e-06 -9.989946e-01	2.733304e-06 4.460248e-06 -2.271521e-02
0.208318      	3.376744e-06 -5.002107e-06 -1.022611e+00	6.950507e-07 -9.293696e-06 -9.998385e-01	2.681694e-06 4.291589e-06 -2.277248e-02
0.211443      	3.484575e-06 -5.346209e-06 -1.023460e+00	8.646757e-07 -9.484380e-06 -1.000635e+00	2.619899e-06 4.138171e-06 -2.282480e-02
0.214568      	3.422963e-06 -5.758243e-06 -1.024020e+00	8.653657e-07 -9.753329e-06 -1.001147e+00	2.557598e-06 3.995086e-06 -2.287282e-02
0.217693      	4.299266e-06 -4.922988e-06 -1.024713e+00	1.811713e-06 -8.787046e-06 -1.001795e+00	2.487553e-06 3.864059e-06 -2.291804e-02
0.220818      	7.683034e-07 -7.946793e-06 -1.025365e+00	-1.675695e-06 -1.171117e-05 -1.002404e+00	2.443998e-06 3.764375e-06 -2.296080e-02
0.223943      	1.545778e-06 -9.075383e-06 -1.025630e+00	-8.563234e-07 -1.275504e-05 -1.002631e+00	2.402101e-06 3.679654e-06 -2.299902e-02
0.227068      	4.571163e-06 -4.954813e-06 -1.025959e+00	2.215359e-06 -8.558503e-06 -1.002927e+00	2.355805e-06 3.603690e-06 -2.303144e-02
0.230193      	4.472830e-06 -5.185763e-06 -1.026225e+00	2.148527e-06 -8.731770e-06 -1.003166e+00	2.324303e-06 3.546006e-06 -2.305914e-02
0.233318      	3.382669e-06 -6.989321e-06 -1.026290e+00	1.106301e-06 -1.044802e-05 -1.003206e+00	2.276368e-06 3.458703e-06 -2.308325e-02
0.236443      	3.315660e-06 -6.660391e-06 -1.026474e+00	1.119939e-06 -1.002246e-05 -1.003369e+00	2.195720e-06 3.362067e-06 -2.310484e-02
0.239568      	1.967031e-06 -8.892230e-06 -1.026871e+00	-1.644118e-07 -1.220917e-05 -1.003748e+00	2.131443e-06 3.316940e-06 -2.312313e-02
0.242693      	3.766182e-06 -6.802971e-06 -1.026920e+00	1.684671e-06 -1.010702e-05 -1.003782e+00	2.081512e-06 3.304048e-06 -2.313780e-02
0.245818      	3.611498e-06 -7.165356e-06 -1.027222e+00	1.580969e-06 -1.045659e-05 -1.004071e+00	2.030530e-06 3.291237e-06 -2.315060e-02
0.248943      	3.914523e-06 -6.818754e-06 -1.027129e+00	1.929739e-06 -1.010980e-05 -1.003968e+00	1.984784e-06 3.291046e-06 -2.316072e-02
0.252068      	4.107195e-06 -7.244169e-06 -1.026964e+00	2.162522e-06 -1.053473e-05 -1.003795e+00	1.944673e-06 3.290558e-06 -2.316838e-02
0.255193      	3.391625e-06 -7.371903e-06 -1.026939e+00	1.496876e-06 -1.065884e-05 -1.003768e+00	1.894749e-06 3.286934e-06 -2.317091e-02
0.258318      	3.711001e-06 -7.682607e-06 -1.026793e+00	1.858012e-06 -1.095656e-05 -1.003626e+00	1.852989e-06 3.273950e-06 -2.316784e-02
0.261443      	3.848269e-06 -7.474327e-06 -1.026999e+00	2.041413e-06 -1.076284e-05 -1.003843e+00	1.806856e-06 3.288514e-06 -2.315590e-02
0.264568      	4.206374e-06 -7.749619e-06 -1.026266e+00	2.447355e-06 -1.106504e-05 -1.003118e+00	1.759019e-06 3.315420e-06 -2.314852e-02
0.267693      	3.916811e-06 -7.031943e-06 -1.025893e+00	2.193749e-06 -1.037867e-05 -1.002738e+00	1.723062e-06 3.346732e-06 -2.315469e-02
0.270818      	3.603015e-06 -8.338687e-06 -1.025501e+00	1.911810e-06 -1.170794e-05 -1.002336e+00	1.691204e-06 3.369257e-06 -2.316500e-02
0.273943      	4.818544e-06 -6.789517e-06 -1.025103e+00	3.120460e-06 -1.022481e-05 -1.001932e+00	1.698083e-06 3.435297e-06 -2.317027e-02
0.277068      	4.843488e-06 -6.745642e-06 -1.024714e+00	3.182491e-06 -1.023136e-05 -1.001546e+00	1.660997e-06 3.485714e-06 -2.316874e-02
0.280193      	4.115999e-06 -7.534800e-06 -1.024119e+00	2.531481e-06 -1.099843e-05 -1.000957e+00	1.584518e-06 3.463633e-06 -2.316228e-02
0.283318      	4.386827e-06 -7.602092e-06 -1.023697e+00	2.849510e-06 -1.105325e-05 -1.000542e+00	1.537316e-06 3.451157e-06 -2.315464e-02
0.286443      	4.330714e-06 -8.164883e-06 -1.023113e+00	2.803439e-06 -1.163631e-05 -9.999670e-01	1.527275e-06 3.471429e-06 -2.314605e-02
0.289568      	4.020320e-06 -7.796245e-06 -1.022622e+00	2.518240e-06 -1.128932e-05 -9.994845e-01	1.502080e-06 3.493079e-06 -2.313702e-02
0.292693      	5.677100e-06 -6.196440e-06 -1.021992e+00	4.175926e-06 -9.747368e-06 -9.988675e-01	1.501175e-06 3.550928e-06 -2.312440e-02
0.295818      	4.746932e-06 -7.484509e-06 -1.021284e+00	3.273311e-06 -1.108528e-05 -9.981761e-01	1.473621e-06 3.600770e-06 -2.310756e-02
0.298943      	4.983730e-06 -7.558370e-06 -1.020625e+00	3.534925e-06 -1.120047e-05 -9.975381e-01	1.448805e-06 3.642097e-06 -2.308702e-02
0.302068      	5.523772e-06 -6.861529e-06 -1.019925e+00	4.091381e-06 -1.055928e-05 -9.968619e-01	1.432391e-06 3.697749e-06 -2.306260e-02
0.305193      	5.478180e-06 -7.435056e-06 -1.019125e+00	4.064532e-06 -1.118824e-05 -9.960907e-01	1.413647e-06 3.753183e-06 -2.303425e-02
0.308318      	4.762837e-06 -8.369386e-06 -1.018438e+00	3.378911e-06 -1.216416e-05 -9.954351e-01	1.383926e-06 3.794779e-06 -2.300249e-02
0.311443      	5.557719e-06 -7.885302e-06 -1.017583e+00	4.199978e-06 -1.172266e-05 -9.946157e-01	1.357741e-06 3.837363e-06 -2.296684e-02
0.314568      	5.279027e-06 -7.715152e-06 -1.016810e+00	3.949086e-06 -1.160534e-05 -9.938821e-01	1.329941e-06 3.890185e-06 -2.292830e-02
0.317693      	5.737470e-06 -7.159136e-06 -1.015942e+00	4.427976e-06 -1.111117e-05 -9.930551e-01	1.309494e-06 3.952033e-06 -2.288675e-02
0.320818      	5.728920e-06 -7.260557e-06 -1.015066e+00	4.425905e-06 -1.127527e-05 -9.922248e-01	1.303015e-06 4.014716e-06 -2.284142e-02
0.323943      	5.302464e-06 -7.114807e-06 -1.014172e+00	4.010134e-06 -1.120023e-05 -9.913795e-01	1.292330e-06 4.085425e-06 -2.279235e-02
0.327068      	6.423380e-06 -6.540705e-06 -1.013275e+00	5.140941e-06 -1.070689e-05 -9.905347e-01	1.282439e-06 4.166186e-06 -2.274024e-02
0.330193      	5.674911e-06 -7.942914e-06 -1.012204e+00	4.410973e-06 -1.217784e-05 -9.895193e-01	1.263939e-06 4.234924e-06 -2.268466e-02
0.333318      	6.355758e-06 -6.716268e-06 -1.011249e+00	5.107243e-06 -1.102802e-05 -9.886231e-01	1.248515e-06 4.311749e-06 -2.262566e-02
0.336443      	6.009865e-06 -7.161453e-06 -1.010151e+00	4.780060e-06 -1.155203e-05 -9.875877e-01	1.229805e-06 4.390576e-06 -2.256333e-02
0.339568      	6.554950e-06 -7.658426e-06 -1.009087e+00	5.343241e-06 -1.212038e-05 -9.865894e-01	1.211709e-06 4.461958e-06 -2.249748e-02
0.342693      	6.732231e-06 -6.158662e-06 -1.007957e+00	5.538270e-06 -1.070853e-05 -9.855288e-01	1.193961e-06 4.549867e-06 -2.242789e-02
0.345818      	6.845769e-06 -6.721212e-06 -1.006743e+00	5.665183e-06 -1.136797e-05 -9.843878e-01	1.180586e-06 4.646758e-06 -2.235488e-02
0.348943      	6.567921e-06 -6.938479e-06 -1.005615e+00	5.413902e-06 -1.166954e-05 -9.833359e-01	1.154019e-06 4.731065e-06 -2.227867e-02
0.352068      	6.039397e-06 -7.883031e-06 -1.004414e+00	4.911883e-06 -1.269851e-05 -9.822150e-01	1.127514e-06 4.815479e-06 -2.219909e-02
0.355193      	6.801291e-06 -6.973331e-06 -1.003214e+00	5.697503e-06 -1.188455e-05 -9.810980e-01	1.103788e-06 4.911218e-06 -2.211642e-02
0.358318      	6.376212e-06 -6.777216e-06 -1.001872e+00	5.304531e-06 -1.178964e-05 -9.798414e-01	1.071681e-06 5.012421e-06 -2.203094e-02
0.361443      	7.524420e-06 -6.592178e-06 -1.000544e+00	6.493157e-06 -1.170252e-05 -9.786016e-01	1.031263e-06 5.110345e-06 -2.194270e-02
0.364568      	6.734379e-06 -6.388765e-06 -9.910745e-01	5.745383e-06 -1.160063e-05 -9.692317e-01	9.889959e-07 5.211862e-06 -2.184274e-02
0.367693      	6.452413e-06 -6.539218e-06 -9.982101e-01	5.492386e-06 -1.187322e-05 -9.764625e-01	9.600275e-07 5.334001e-06 -2.174761e-02
0.370818      	8.687384e-06 -4.504805e-06 -9.970185e-01	7.798285e-06 -9.905480e-06 -9.753641e-01	8.890989e-07 5.400675e-06 -2.165442e-02
0.373943      	6.876358e-06 -6.518787e-06 -9.956039e-01	6.034891e-06 -1.201266e-05 -9.740469e-01	8.414671e-07 5.493870e-06 -2.155704e-02
0.377068      	6.831244e-06 -5.734051e-06 -9.941674e-01	6.008385e-06 -1.134313e-05 -9.727115e-01	8.228589e-07 5.609075e-06 -2.145584e-02
0.380193      	9.976598e-06 -5.533169e-06 -9.925421e-01	9.241985e-06 -1.121327e-05 -9.711916e-01	7.346126e-07 5.680102e-06 -2.135053e-02
0.383318      	3.344217e-06 -7.239678e-06 -9.910214e-01	2.585047e-06 -1.302927e-05 -9.697799e-01	7.591700e-07 5.789593e-06 -2.124153e-02
0.386443      	7.114686e-06 -5.763141e-06 -9.892283e-01	6.314905e-06 -1.168297e-05 -9.680996e-01	7.997812e-07 5.919824e-06 -2.112877e-02
0.389568      	6.692726e-06 -5.014675e-06 -9.873534e-01	5.894083e-06 -1.105810e-05 -9.663411e-01	7.986436e-07 6.043421e-06 -2.101235e-02
0.392693      	5.638024e-06 -5.853868e-06 -9.855041e-01	4.831139e-06 -1.202686e-05 -9.646120e-01	8.068854e-07 6.172993e-06 -2.089210e-02
0.395818      	6.740326e-06 -4.241784e-06 -9.834876e-01	5.959612e-06 -1.051437e-05 -9.627185e-01	7.807138e-07 6.272581e-06 -2.076906e-02
0.398943      	5.705333e-06 -6.231140e-06 -9.814741e-01	4.959864e-06 -1.258835e-05 -9.608306e-01	7.454690e-07 6.357213e-06 -2.064344e-02
0.402068      	5.706629e-06 -5.451990e-06 -9.793080e-01	4.966219e-06 -1.191591e-05 -9.587940e-01	7.404098e-07 6.463917e-06 -2.051402e-02
0.405193      	5.914056e-06 -4.584302e-06 -9.770539e-01	5.158691e-06 -1.117581e-05 -9.566737e-01	7.553654e-07 6.591513e-06 -2.038028e-02
0.408318      	5.522184e-06 -5.098745e-06 -9.746057e-01	4.754539e-06 -1.181338e-05 -9.543636e-01	7.676453e-07 6.714636e-06 -2.024212e-02
0.411443      	6.036306e-06 -3.883398e-06 -9.721390e-01	5.251154e-06 -1.072957e-05 -9.520398e-01	7.851517e-07 6.846167e-06 -2.009922e-02
0.414568      	4.757446e-06 -5.514414e-06 -9.694698e-01	3.957728e-06 -1.248644e-05 -9.495182e-01	7.997185e-07 6.972028e-06 -1.995160e-02
0.417693      	5.380135e-06 -4.264728e-06 -9.667089e-01	4.562817e-06 -1.136591e-05 -9.469095e-01	8.173181e-07 7.101178e-06 -1.979939e-02
0.420818      	5.213989e-06 -3.817071e-06 -9.637308e-01	4.379516e-06 -1.104935e-05 -9.440883e-01	8.344729e-07 7.232279e-06 -1.964252e-02
0.423943      	4.921697e-06 -4.136940e-06 -9.607452e-01	4.073520e-06 -1.149420e-05 -9.412642e-01	8.481764e-07 7.357260e-06 -1.948096e-02
0.427068      	5.028516e-06 -3.278199e-06 -9.574855e-01	4.163478e-06 -1.076470e-05 -9.381707e-01	8.650379e-07 7.486498e-06 -1.931484e-02
0.430193      	5.025217e-06 -3.206345e-06 -9.541166e-01	4.138387e-06 -1.081990e-05 -9.349724e-01	8.868295e-07 7.613555e-06 -1.914421e-02
0.433318      	4.477324e-06 -3.394897e-06 -9.505755e-01	3.571968e-06 -1.113518e-05 -9.316062e-01	9.053561e-07 7.740280e-06 -1.896929e-02
0.436443      	5.534371e-06 -1.576570e-06 -9.469156e-01	4.605113e-06 -9.453041e-06 -9.281250e-01	9.292581e-07 7.876472e-06 -1.879055e-02
0.439568      	5.956797e-06 -1.509302e-06 -9.430494e-01	5.044035e-06 -9.492764e-06 -9.244411e-01	9.127624e-07 7.983463e-06 -1.860828e-02
0.442693      	2.295329e-06 -2.403398e-06 -9.389423e-01	1.315221e-06 -1.051364e-05 -9.205195e-01	9.801079e-07 8.110245e-06 -1.842274e-02
0.445818      	3.381737e-06 -1.596643e-06 -9.345441e-01	2.277028e-06 -9.878194e-06 -9.163091e-01	1.104709e-06 8.281552e-06 -1.823501e-02
0.448943      	4.315778e-06 -5.096906e-07 -9.301487e-01	3.111840e-06 -8.951884e-06 -9.121033e-01	1.203938e-06 8.442194e-06 -1.804538e-02
0.452068      	4.313764e-06 3.815308e-08 -9.254530e-01	3.015687e-06 -8.547599e-06 -9.075989e-01	1.298077e-06 8.585752e-06 -1.785410e-02
0.455193      	3.953352e-06 1.405069e-07 -9.206398e-01	2.560510e-06 -8.572415e-06 -9.029777e-01	1.392842e-06 8.712922e-06 -1.766205e-02
0.458318      	3.761512e-06 1.012592e-06 -9.157327e-01	2.280416e-06 -7.824551e-06 -8.982629e-01	1.481096e-06 8.837142e-06 -1.746983e-02
0.461443      	3.676324e-06 5.961864e-07 -9.105263e-01	2.107778e-06 -8.343710e-06 -8.932483e-01	1.568546e-06 8.939896e-06 -1.727797e-02
0.464568      	3.586586e-06 8.141132e-07 -9.052274e-01	1.929781e-06 -8.222248e-06 -8.881400e-01	1.656805e-06 9.036361e-06 -1.708738e-02
0.467693      	2.023302e-06 -2.393612e-07 -8.998017e-01	2.271182e-07 -9.450246e-06 -8.829029e-01	1.796184e-06 9.210885e-06 -1.689876e-02
0.470818      	1.382681e-06 -4.377498e-08 -8.942309e-01	-5.983499e-07 -9.393283e-06 -8.775179e-01	1.981031e-06 9.349508e-06 -1.671295e-02
0.473943      	3.972056e-06 4.519842e-06 -8.884485e-01	1.815909e-06 -4.934844e-06 -8.719176e-01	2.156148e-06 9.454686e-06 -1.653087e-02
0.477068      	3.027052e-06 2.792166e-06 -8.823884e-01	7.357963e-07 -6.734396e-06 -8.660349e-01	2.291256e-06 9.526562e-06 -1.635344e-02
0.480193      	3.017427e-06 3.818791e-06 -8.762470e-01	5.956138e-07 -5.769914e-06 -8.600654e-01	2.421813e-06 9.588704e-06 -1.618158e-02
0.483318      	2.344924e-06 3.297902e-06 -8.699814e-01	-2.067286e-07 -6.344989e-06 -8.539655e-01	2.551653e-06 9.642890e-06 -1.601588e-02
0.486443      	1.924866e-06 3.099391e-06 -8.635903e-01	-7.625970e-07 -6.586687e-06 -8.477332e-01	2.687463e-06 9.686077e-06 -1.585717e-02
0.489568      	3.153835e-06 4.949930e-06 -8.570476e-01	3.133465e-07 -4.785546e-06 -8.413414e-01	2.840488e-06 9.735476e-06 -1.570625e-02
0.492693      	2.235934e-06 4.445237e-06 -8.503951e-01	-7.617694e-07 -5.336601e-06 -8.348310e-01	2.997703e-06 9.781838e-06 -1.556401e-02
0.495818      	2.578032e-06 5.944007e-06 -8.436440e-01	-5.787259e-07 -3.882192e-06 -8.282129e-01	3.156758e-06 9.826199e-06 -1.543112e-02
0.498943      	1.858099e-06 5.549267e-06 -8.368144e-01	-1.459520e-06 -4.324206e-06 -8.215063e-01	3.317619e-06 9.873473e-06 -1.530809e-02
0.502068      	1.757782e-06 5.562255e-06 -8.299103e-01	-1.717178e-06 -4.346391e-06 -8.147149e-01	3.474960e-06 9.908646e-06 -1.519543e-02
0.505193      	1.787083e-06 5.972370e-06 -8.229311e-01	-1.844608e-06 -3.961679e-06 -8.078375e-01	3.631691e-06 9.934049e-06 -1.509354e-02
0.508318      	1.467830e-06 5.956882e-06 -8.158963e-01	-2.318615e-06 -3.995011e-06 -8.008933e-01	3.786445e-06 9.951893e-06 -1.500296e-02
0.511443      	1.666975e-06 7.017470e-06 -8.088684e-01	-2.276258e-06 -2.957475e-06 -7.939443e-01	3.943232e-06 9.974945e-06 -1.492414e-02
0.514568      	1.778586e-06 7.244903e-06 -8.018078e-01	-2.324090e-06 -2.752424e-06 -7.869504e-01	4.102676e-06 9.997327e-06 -1.485744e-02
0.517693      	2.536374e-06 9.878514e-06 -7.947356e-01	-1.723325e-06 -1.426099e-07 -7.799326e-01	4.259699e-06 1.002112e-05 -1.480303e-02
0.520818      	1.150395e-06 6.013708e-06 -7.876616e-01	-3.252718e-06 -4.002827e-06 -7.729008e-01	4.403113e-06 1.001654e-05 -1.476078e-02
0.523943      	1.338007e-06 7.105370e-06 -7.806072e-01	-3.187973e-06 -2.887462e-06 -7.658765e-01	4.525980e-06 9.992832e-06 -1.473070e-02
0.527068      	1.139554e-06 7.663536e-06 -7.735770e-01	-3.517251e-06 -2.324495e-06 -7.588639e-01	4.656805e-06 9.988031e-06 -1.471310e-02
0.530193      	1.712135e-06 8.541508e-06 -7.665883e-01	-3.077435e-06 -1.451895e-06 -7.518806e-01	4.789570e-06 9.993404e-06 -1.470769e-02
0.533318      	-7.460878e-07 6.991790e-06 -7.596427e-01	-5.713164e-06 -3.028754e-06 -7.449286e-01	4.967076e-06 1.002054e-05 -1.471407e-02
0.536443      	1.023189e-06 8.449872e-06 -7.527644e-01	-4.111637e-06 -1.601229e-06 -7.380320e-01	5.134826e-06 1.005110e-05 -1.473240e-02
0.539568      	-8.364628e-07 6.933107e-06 -7.459664e-01	-6.126489e-06 -3.137316e-06 -7.312041e-01	5.290026e-06 1.007042e-05 -1.476236e-02
0.542693      	2.467491e-08 8.381446e-06 -7.392243e-01	-5.411627e-06 -1.720629e-06 -7.244209e-01	5.436301e-06 1.010207e-05 -1.480340e-02
0.545818      	-5.813138e-08 6.399575e-06 -7.325757e-01	-5.613170e-06 -3.720430e-06 -7.177207e-01	5.555039e-06 1.012001e-05 -1.485505e-02
0.548943      	1.398661e-07 8.202454e-06 -7.260321e-01	-5.491409e-06 -1.905815e-06 -7.111156e-01	5.631275e-06 1.010827e-05 -1.491649e-02
0.552068      	-2.455553e-06 6.038865e-06 -7.195755e-01	-8.175767e-06 -4.063593e-06 -7.045883e-01	5.720213e-06 1.010246e-05 -1.498713e-02
0.555193      	-7.083241e-07 6.588806e-06 -7.131936e-01	-6.510530e-06 -3.517270e-06 -6.981272e-01	5.802206e-06 1.010608e-05 -1.506637e-02
0.558318      	-4.929094e-07 7.466295e-06 -7.068919e-01	-6.340549e-06 -2.637645e-06 -6.917385e-01	5.847640e-06 1.010394e-05 -1.515336e-02
0.561443      	-1.525725e-06 6.353077e-06 -7.007177e-01	-7.407388e-06 -3.751864e-06 -6.854709e-01	5.881663e-06 1.010494e-05 -1.524688e-02
0.564568      	-8.948258e-07 6.831798e-06 -6.945936e-01	-6.794980e-06 -3.251134e-06 -6.792477e-01	5.900154e-06 1.008293e-05 -1.534584e-02
0.567693      	-9.243952e-07 5.247187e-06 -6.885556e-01	-6.828258e-06 -4.777837e-06 -6.731059e-01	5.903863e-06 1.002502e-05 -1.544966e-02
0.570818      	-1.646856e-06 8.065503e-06 -6.826393e-01	-7.549193e-06 -1.944593e-06 -6.670821e-01	5.902338e-06 1.001010e-05 -1.555722e-02
0.573943      	-1.722249e-06 4.766825e-06 -6.767883e-01	-7.636985e-06 -5.230407e-06 -6.611211e-01	5.914736e-06 9.997232e-06 -1.566716e-02
0.577068      	-1.899715e-06 5.859443e-06 -6.710147e-01	-7.824005e-06 -4.129851e-06 -6.552364e-01	5.924290e-06 9.989295e-06 -1.577834e-02
0.580193      	-1.805927e-06 5.565775e-06 -6.652908e-01	-7.725732e-06 -4.416385e-06 -6.494012e-01	5.919805e-06 9.982159e-06 -1.588960e-02
0.583318      	-2.107803e-06 4.633341e-06 -6.595803e-01	-8.017419e-06 -5.336856e-06 -6.435804e-01	5.909617e-06 9.970198e-06 -1.599987e-02
0.586443      	-2.462538e-06 4.579221e-06 -6.539410e-01	-8.359314e-06 -5.385878e-06 -6.378330e-01	5.896775e-06 9.965099e-06 -1.610797e-02
0.589568      	-2.449509e-06 4.249943e-06 -6.483189e-01	-8.329223e-06 -5.709792e-06 -6.321062e-01	5.879714e-06 9.959735e-06 -1.621272e-02
0.592693      	-2.653991e-06 3.960092e-06 -6.427026e-01	-8.506591e-06 -5.988832e-06 -6.263894e-01	5.852600e-06 9.948924e-06 -1.631328e-02
0.595818      	-2.910068e-06 3.389868e-06 -6.371139e-01	-8.726609e-06 -6.542530e-06 -6.207052e-01	5.816541e-06 9.932398e-06 -1.640873e-02
0.598943      	-3.040151e-06 3.858532e-06 -6.314793e-01	-8.814975e-06 -6.059262e-06 -6.149812e-01	5.774824e-06 9.917794e-06 -1.649812e-02
0.602068      	-2.979710e-06 3.437772e-06 -6.259000e-01	-8.709829e-06 -6.462635e-06 -6.093194e-01	5.730119e-06 9.900408e-06 -1.658066e-02
0.605193      	-3.221933e-06 2.598636e-06 -6.202783e-01	-8.898379e-06 -7.274853e-06 -6.036227e-01	5.676446e-06 9.873489e-06 -1.665562e-02
0.608318      	-3.021185e-06 3.106953e-06 -6.146435e-01	-8.642033e-06 -6.743704e-06 -5.979213e-01	5.620847e-06 9.850658e-06 -1.672223e-02
0.611443      	-3.114463e-06 2.416258e-06 -6.089516e-01	-8.682691e-06 -7.414024e-06 -5.921718e-01	5.568228e-06 9.830282e-06 -1.677982e-02
0.614568      	-3.382664e-06 2.395467e-06 -6.032396e-01	-8.894041e-06 -7.411071e-06 -5.864116e-01	5.511377e-06 9.806538e-06 -1.682803e-02
0.617693      	-3.128451e-06 2.128507e-06 -5.974579e-01	-8.583836e-06 -7.655647e-06 -5.805913e-01	5.455384e-06 9.784154e-06 -1.686660e-02
0.620818      	-3.161700e-06 1.930489e-06 -5.916280e-01	-8.559730e-06 -7.830187e-06 -5.747327e-01	5.398029e-06 9.760675e-06 -1.689534e-02
0.623943      	-3.164752e-06 1.727418e-06 -5.857584e-01	-8.503470e-06 -8.008351e-06 -5.688446e-01	5.338717e-06 9.735769e-06 -1.691385e-02
0.627068      	-3.189113e-06 1.733142e-06 -5.798195e-01	-8.470210e-06 -7.978281e-06 -5.628976e-01	5.281097e-06 9.711423e-06 -1.692197e-02
0.630193      	-3.079948e-06 1.652348e-06 -5.738126e-01	-8.303640e-06 -8.031271e-06 -5.568931e-01	5.223692e-06 9.683619e-06 -1.691949e-02
0.633318      	-3.246156e-06 1.275905e-06 -5.677174e-01	-8.413979e-06 -8.379746e-06 -5.508113e-01	5.167823e-06 9.655652e-06 -1.690619e-02
0.636443      	-3.320774e-06 8.364513e-07 -5.616385e-01	-8.436293e-06 -8.793001e-06 -5.447566e-01	5.115519e-06 9.629452e-06 -1.688181e-02
0.639568      	-3.582895e-06 7.132137e-07 -5.554388e-01	-8.649159e-06 -8.893106e-06 -5.385925e-01	5.066264e-06 9.606320e-06 -1.684624e-02
0.642693      	-3.498938e-06 4.536517e-07 -5.492193e-01	-8.515819e-06 -9.127985e-06 -5.324194e-01	5.016880e-06 9.581637e-06 -1.679987e-02
0.645818      	-3.118460e-06 4.815442e-07 -5.428854e-01	-8.086003e-06 -9.071317e-06 -5.261429e-01	4.967543e-06 9.552861e-06 -1.674250e-02
0.648943      	-3.263386e-06 4.021975e-07 -5.364792e-01	-8.185052e-06 -9.123125e-06 -5.198050e-01	4.921666e-06 9.525322e-06 -1.667426e-02
0.652068      	-3.298865e-06 2.959680e-07 -5.299980e-01	-8.175365e-06 -9.204413e-06 -5.134025e-01	4.876499e-06 9.500381e-06 -1.659546e-02
0.655193      	-3.309024e-06 -1.492334e-07 -5.234674e-01	-8.144009e-06 -9.624427e-06 -5.069613e-01	4.834986e-06 9.475193e-06 -1.650613e-02
0.658318      	-3.278882e-06 1.186833e-07 -5.168225e-01	-8.072263e-06 -9.329644e-06 -5.004162e-01	4.793381e-06 9.448327e-06 -1.640629e-02
0.661443      	-3.176986e-06 -5.718959e-07 -5.101095e-01	-7.934417e-06 -9.992141e-06 -4.938131e-01	4.757431e-06 9.420245e-06 -1.629645e-02
0.664568      	-3.332669e-06 -5.352544e-07 -5.033328e-01	-8.055647e-06 -9.928896e-06 -4.871562e-01	4.722978e-06 9.393642e-06 -1.617658e-02
0.667693      	-3.312225e-06 -7.007901e-07 -4.964696e-01	-8.001374e-06 -1.006755e-05 -4.804226e-01	4.689149e-06 9.366756e-06 -1.604702e-02
0.670818      	-3.243402e-06 -9.896137e-07 -4.895345e-01	-7.902125e-06 -1.032695e-05 -4.736261e-01	4.658723e-06 9.337334e-06 -1.590838e-02
0.673943      	-3.375318e-06 -8.964076e-07 -4.825480e-01	-8.004340e-06 -1.020857e-05 -4.667871e-01	4.629022e-06 9.312161e-06 -1.576094e-02
0.677068      	-3.267923e-06 -1.268235e-06 -4.756469e-01	-7.870063e-06 -1.055225e-05 -4.600423e-01	4.602140e-06 9.284013e-06 -1.560458e-02
0.680193      	-3.283010e-06 -1.165788e-06 -4.685435e-01	-7.857904e-06 -1.041764e-05 -4.531040e-01	4.574894e-06 9.251852e-06 -1.543953e-02
0.683318      	-2.883329e-06 -1.350132e-06 -4.613679e-01	-7.427408e-06 -1.056782e-05 -4.461018e-01	4.544078e-06 9.217687e-06 -1.526614e-02
0.686443      	-2.959566e-06 -1.600692e-06 -4.541363e-01	-7.472042e-06 -1.078838e-05 -4.390514e-01	4.512477e-06 9.187692e-06 -1.508491e-02
0.689568      	-3.317438e-06 -1.743801e-06 -4.468360e-01	-7.806747e-06 -1.090375e-05 -4.319397e-01	4.489308e-06 9.159946e-06 -1.489633e-02
0.692693      	-2.907483e-06 -1.474679e-06 -4.394993e-01	-7.372765e-06 -1.059935e-05 -4.247986e-01	4.465282e-06 9.124674e-06 -1.470067e-02
0.695818      	-2.003498e-06 -9.656246e-07 -4.320660e-01	-6.424743e-06 -1.003696e-05 -4.175677e-01	4.421245e-06 9.071340e-06 -1.449830e-02
0.698943      	-2.212727e-06 -1.482067e-06 -4.246053e-01	-6.588679e-06 -1.049729e-05 -4.103158e-01	4.375952e-06 9.015221e-06 -1.428949e-02
0.702068      	-2.439269e-06 -1.538456e-06 -4.170956e-01	-6.782139e-06 -1.050514e-05 -4.030206e-01	4.342870e-06 8.966686e-06 -1.407496e-02