# Moment      
# CofR        : (0.000000e+00 0.000000e+00 0.000000e+00)
#
# Time        	(total_x total_y total_z)	(pressure_x pressure_y pressure_z)	(viscous_x viscous_y viscous_z)
0.004166      	(-5.767370e-05 9.835444e-05 -4.422161e-08)	(-4.903699e-05 1.065211e-04 3.815790e-09)	(-8.636709e-06 -8.166688e-06 -4.803740e-08)
0.008332      	(-4.859716e-05 -3.384872e-05 -5.150179e-08)	(-3.639286e-05 -1.962779e-05 2.995333e-09)	(-1.220430e-05 -1.422093e-05 -5.449712e-08)
0.012498      	(-1.603081e-05 -4.830302e-05 -3.473297e-08)	(-7.950427e-06 -3.001106e-05 1.751530e-09)	(-8.080386e-06 -1.829196e-05 -3.648450e-08)
0.016664      	(-3.002719e-05 -2.468532e-05 -2.024472e-08)	(-2.728390e-05 -5.239871e-06 9.746827e-10)	(-2.743296e-06 -1.944545e-05 -2.121940e-08)
0.02083       	(-3.127565e-05 -2.902338e-05 -1.067290e-08)	(-3.162659e-05 -1.010859e-05 7.636603e-10)	(3.509351e-07 -1.891479e-05 -1.143656e-08)
0.024996      	(4.482787e-06 -3.359447e-05 -5.280042e-09)	(1.712002e-06 -1.535722e-05 6.703732e-10)	(2.770785e-06 -1.823725e-05 -5.950415e-09)
0.029162      	(-1.837597e-05 -1.786596e-05 -2.515652e-09)	(-2.255478e-05 -6.920144e-07 5.564591e-10)	(4.178812e-06 -1.717395e-05 -3.072111e-09)
0.033328      	(-8.376363e-06 -2.296898e-05 -4.413389e-10)	(-1.330310e-05 -6.983081e-06 5.427878e-10)	(4.926742e-06 -1.598590e-05 -9.841267e-10)
0.037494      	(-5.396989e-06 -2.040356e-05 1.105099e-09)	(-1.083181e-05 -5.531207e-06 5.063198e-10)	(5.434820e-06 -1.487235e-05 5.987790e-10)
0.04166       	(-6.420235e-06 -1.721114e-05 1.461681e-09)	(-1.202563e-05 -3.471717e-06 4.602687e-10)	(5.605390e-06 -1.373943e-05 1.001412e-09)
0.045826      	(-5.806331e-06 -1.546688e-05 1.707985e-09)	(-1.138771e-05 -2.808176e-06 4.393017e-10)	(5.581382e-06 -1.265870e-05 1.268683e-09)
0.049992      	(-4.379274e-06 -1.436434e-05 2.274855e-09)	(-9.857146e-06 -2.683115e-06 4.151061e-10)	(5.477872e-06 -1.168122e-05 1.859749e-09)
0.054158      	(-4.235711e-06 -1.256123e-05 3.413000e-09)	(-9.550544e-06 -1.769957e-06 3.818249e-10)	(5.314833e-06 -1.079127e-05 3.031176e-09)
0.058324      	(-4.201552e-06 -1.127861e-05 4.337684e-09)	(-9.358173e-06 -1.290257e-06 3.560798e-10)	(5.156621e-06 -9.988353e-06 3.981604e-09)
0.06249       	(-4.200948e-06 -1.029172e-05 5.417578e-09)	(-9.218160e-06 -1.051474e-06 3.356619e-10)	(5.017212e-06 -9.240248e-06 5.081916e-09)
0.066656      	(-3.204191e-06 -9.648228e-06 5.704223e-09)	(-8.063451e-06 -1.109779e-06 3.136480e-10)	(4.859260e-06 -8.538449e-06 5.390575e-09)
0.070822      	(-2.186487e-06 -9.050172e-06 5.234847e-09)	(-6.879688e-06 -1.154489e-06 2.926393e-10)	(4.693201e-06 -7.895683e-06 4.942207e-09)
0.074988      	(-1.791913e-06 -8.111831e-06 5.556839e-09)	(-6.319270e-06 -8.176587e-07 2.748559e-10)	(4.527357e-06 -7.294172e-06 5.281983e-09)
0.079154      	(-1.415433e-06 -7.524263e-06 6.327642e-09)	(-5.774798e-06 -7.962201e-07 2.548189e-10)	(4.359366e-06 -6.728043e-06 6.072823e-09)
0.08332       	(-9.373045e-07 -7.213758e-06 6.756335e-09)	(-5.130651e-06 -1.011987e-06 2.339902e-10)	(4.193347e-06 -6.201771e-06 6.522345e-09)
0.087486      	(5.548457e-07 -6.665336e-06 6.997627e-09)	(-3.481069e-06 -9.499491e-07 2.145283e-10)	(4.035915e-06 -5.715387e-06 6.783099e-09)
0.091652      	(8.962985e-07 -6.562780e-06 7.186434e-09)	(-2.992089e-06 -1.302253e-06 1.961872e-10)	(3.888387e-06 -5.260527e-06 6.990247e-09)
0.095818      	(1.336921e-06 -6.418571e-06 7.178666e-09)	(-2.399443e-06 -1.586384e-06 1.771032e-10)	(3.736364e-06 -4.832187e-06 7.001563e-09)
0.098943      	(1.216803e-06 -6.501089e-06 7.245037e-09)	(-2.395621e-06 -1.954726e-06 1.664812e-10)	(3.612424e-06 -4.546362e-06 7.078556e-09)
0.102068      	(1.625783e-06 -4.831491e-06 7.423465e-09)	(-1.839223e-06 -5.821997e-07 1.541266e-10)	(3.465006e-06 -4.249292e-06 7.269338e-09)
0.105193      	(2.165683e-06 -5.554665e-06 7.574461e-09)	(-1.184706e-06 -1.586354e-06 1.406671e-10)	(3.350389e-06 -3.968310e-06 7.433794e-09)
0.108318      	(2.297352e-06 -4.622711e-06 7.734249e-09)	(-9.621255e-07 -9.029483e-07 1.288712e-10)	(3.259477e-06 -3.719763e-06 7.605378e-09)
0.111443      	(2.111530e-06 -3.394140e-06 7.688506e-09)	(-1.057933e-06 1.145690e-07 1.146518e-10)	(3.169463e-06 -3.508709e-06 7.573854e-09)
0.114568      	(3.554105e-06 -7.688043e-06 7.536483e-09)	(4.929755e-07 -4.466484e-06 1.072620e-10)	(3.061129e-06 -3.221559e-06 7.429221e-09)
0.117693      	(4.140926e-06 -5.568812e-06 7.518749e-09)	(1.183306e-06 -2.622122e-06 9.646751e-11)	(2.957620e-06 -2.946691e-06 7.422281e-09)
0.120818      	(3.510544e-06 -4.950263e-06 7.384450e-09)	(6.546427e-07 -2.226850e-06 3.722981e-11)	(2.855902e-06 -2.723413e-06 7.347220e-09)
0.123943      	(4.833401e-06 -4.660697e-06 7.355044e-09)	(2.065640e-06 -2.145909e-06 8.319550e-11)	(2.767761e-06 -2.514788e-06 7.271849e-09)
0.127068      	(4.754661e-06 -4.217678e-06 7.228662e-09)	(2.066359e-06 -1.900852e-06 7.011224e-11)	(2.688302e-06 -2.316826e-06 7.158550e-09)
0.130193      	(6.918630e-06 -5.071130e-06 7.091493e-09)	(4.301180e-06 -2.948349e-06 8.256630e-11)	(2.617450e-06 -2.122781e-06 7.008927e-09)
0.133318      	(5.709097e-06 -4.065793e-06 6.995222e-09)	(3.162404e-06 -2.122052e-06 5.489112e-11)	(2.546693e-06 -1.943740e-06 6.940331e-09)
0.136443      	(5.994652e-06 -4.504560e-06 6.844513e-09)	(3.518023e-06 -2.727855e-06 4.648187e-11)	(2.476628e-06 -1.776704e-06 6.798031e-09)
0.139568      	(4.738319e-06 -4.580351e-06 6.640518e-09)	(2.327749e-06 -2.965657e-06 3.254348e-11)	(2.410570e-06 -1.614694e-06 6.607974e-09)
0.142693      	(5.769515e-06 -2.994236e-06 6.538809e-09)	(3.426032e-06 -1.518557e-06 1.231046e-11)	(2.343484e-06 -1.475679e-06 6.526498e-09)
0.145818      	(6.588919e-06 -3.915818e-06 6.457354e-09)	(4.309783e-06 -2.575276e-06 1.917540e-11)	(2.279137e-06 -1.340542e-06 6.438179e-09)
0.148943      	(7.402553e-06 -4.198638e-06 6.310832e-09)	(5.165554e-06 -2.988258e-06 2.130548e-11)	(2.237000e-06 -1.210380e-06 6.289526e-09)
0.152068      	(6.846700e-06 -3.925883e-06 6.081358e-09)	(4.651042e-06 -2.832760e-06 6.670539e-12)	(2.195658e-06 -1.093122e-06 6.074688e-09)
0.155193      	(7.160624e-06 -3.873977e-06 5.858218e-09)	(5.000849e-06 -2.882394e-06 -6.760962e-13)	(2.159775e-06 -9.915823e-07 5.858895e-09)
0.158318      	(7.589379e-06 -3.814593e-06 5.644917e-09)	(5.444139e-06 -2.909046e-06 -2.074578e-11)	(2.145240e-06 -9.055472e-07 5.665662e-09)
0.161443      	(6.131351e-06 -3.607202e-06 5.518597e-09)	(4.050252e-06 -2.804497e-06 9.070224e-12)	(2.081099e-06 -8.027059e-07 5.509527e-09)
0.164568      	(7.762572e-06 -3.476577e-06 5.321170e-09)	(5.767136e-06 -2.779213e-06 1.994512e-12)	(1.995435e-06 -6.973637e-07 5.319176e-09)
0.167693      	(7.437226e-06 -2.732206e-06 5.205689e-09)	(5.477228e-06 -2.124438e-06 -2.040398e-11)	(1.959997e-06 -6.077672e-07 5.226093e-09)
0.170818      	(9.000618e-06 -3.599344e-06 5.086251e-09)	(7.061648e-06 -3.068699e-06 -1.534736e-11)	(1.938970e-06 -5.306444e-07 5.101598e-09)
0.173943      	(7.731012e-06 -3.954410e-06 4.848050e-09)	(5.821955e-06 -3.496564e-06 -1.890412e-11)	(1.909057e-06 -4.578460e-07 4.866954e-09)
0.177068      	(8.674584e-06 -3.455338e-06 4.578211e-09)	(6.793713e-06 -3.063514e-06 -2.171081e-11)	(1.880871e-06 -3.918243e-07 4.599921e-09)
0.180193      	(8.198456e-06 -4.103555e-06 4.309425e-09)	(6.340814e-06 -3.771108e-06 -2.460693e-11)	(1.857642e-06 -3.324470e-07 4.334032e-09)
0.183318      	(8.069122e-06 -2.667914e-06 3.977910e-09)	(6.247753e-06 -2.404588e-06 -1.205361e-10)	(1.821369e-06 -2.633255e-07 4.098446e-09)
0.186443      	(5.153812e-06 -1.220447e-07 3.887161e-09)	(3.421686e-06 2.694733e-08 5.346437e-11)	(1.732125e-06 -1.489920e-07 3.833697e-09)
0.189568      	(6.834718e-06 -2.353180e-06 3.553856e-09)	(5.162227e-06 -2.281006e-06 -2.369057e-11)	(1.672491e-06 -7.217447e-08 3.577547e-09)
0.192693      	(7.291684e-06 -2.301661e-06 3.360218e-09)	(5.633253e-06 -2.270763e-06 -1.717319e-11)	(1.658431e-06 -3.089780e-08 3.377391e-09)
0.195818      	(7.881162e-06 -2.600330e-06 3.076999e-09)	(6.221196e-06 -2.602448e-06 -3.370271e-11)	(1.659966e-06 2.118276e-09 3.110701e-09)
0.198943      	(8.159856e-06 -2.056444e-06 2.791662e-09)	(6.520612e-06 -2.114712e-06 -4.985308e-11)	(1.639244e-06 5.826794e-08 2.841515e-09)
0.202068      	(3.581672e-06 4.986650e-07 2.594546e-09)	(2.030108e-06 3.501284e-07 6.150006e-11)	(1.551563e-06 1.485366e-07 2.533046e-09)
0.205193      	(9.173462e-06 -3.544666e-06 2.219825e-09)	(7.620678e-06 -3.711518e-06 -4.224428e-11)	(1.552784e-06 1.668519e-07 2.262069e-09)
0.208318      	(9.041494e-06 -2.961065e-06 1.983234e-09)	(7.460703e-06 -3.124552e-06 -4.249000e-11)	(1.580791e-06 1.634874e-07 2.025724e-09)
0.211443      	(8.312810e-06 -2.637036e-06 1.748214e-09)	(6.729560e-06 -2.812428e-06 -3.696939e-11)	(1.583250e-06 1.753913e-07 1.785183e-09)
0.214568      	(8.506924e-06 -2.512370e-06 1.682230e-09)	(6.934949e-06 -2.705481e-06 -4.004349e-11)	(1.571975e-06 1.931103e-07 1.722273e-09)
0.217693      	(8.722016e-06 -2.839896e-06 1.592108e-09)	(7.163584e-06 -3.050273e-06 -4.499378e-11)	(1.558432e-06 2.103761e-07 1.637102e-09)
0.220818      	(7.224128e-06 -6.956136e-07 1.399490e-09)	(5.701572e-06 -9.430854e-07 -3.404278e-11)	(1.522555e-06 2.474718e-07 1.433533e-09)
0.223943      	(6.557567e-06 -1.021553e-06 1.090871e-09)	(5.084148e-06 -1.306090e-06 -4.198650e-11)	(1.473419e-06 2.845362e-07 1.132858e-09)
0.227068      	(8.226759e-06 -2.225363e-06 7.649469e-10)	(6.775056e-06 -2.521129e-06 -4.400596e-11)	(1.451702e-06 2.957665e-07 8.089529e-10)
0.230193      	(8.315774e-06 -2.274341e-06 5.813419e-10)	(6.874398e-06 -2.573941e-06 -4.774993e-11)	(1.441376e-06 2.995997e-07 6.290919e-10)
0.233318      	(7.555361e-06 -1.817648e-06 4.391690e-10)	(6.135423e-06 -2.126191e-06 -5.046435e-11)	(1.419938e-06 3.085426e-07 4.896334e-10)
0.236443      	(7.226215e-06 -1.417565e-06 1.648301e-10)	(5.832629e-06 -1.740524e-06 -3.931246e-11)	(1.393586e-06 3.229590e-07 2.041425e-10)
0.239568      	(6.376934e-06 -4.693579e-07 -6.242058e-11)	(5.005363e-06 -8.093050e-07 -3.708088e-11)	(1.371571e-06 3.399471e-07 -2.533970e-11)
0.242693      	(7.120892e-06 -1.407599e-06 -1.694843e-10)	(5.761500e-06 -1.757222e-06 -4.222773e-11)	(1.359392e-06 3.496223e-07 -1.272566e-10)
0.245818      	(7.014800e-06 -1.087611e-06 -4.233196e-10)	(5.670836e-06 -1.445872e-06 -4.046531e-11)	(1.343964e-06 3.582609e-07 -3.828543e-10)
0.248943      	(7.634944e-06 -1.018077e-06 -6.585507e-10)	(6.307494e-06 -1.384891e-06 -3.844575e-11)	(1.327451e-06 3.668147e-07 -6.201049e-10)
0.252068      	(6.700968e-06 -1.243354e-06 -8.556153e-10)	(5.390654e-06 -1.614524e-06 -3.415913e-11)	(1.310313e-06 3.711698e-07 -8.214562e-10)
0.255193      	(6.306154e-06 -3.751177e-07 -9.705019e-10)	(5.019058e-06 -7.494570e-07 -3.279170e-11)	(1.287097e-06 3.743393e-07 -9.377103e-10)
0.258318      	(6.479903e-06 -3.460171e-07 -9.561281e-10)	(5.220307e-06 -7.193801e-07 -3.025812e-11)	(1.259596e-06 3.733630e-07 -9.258699e-10)
0.261443      	(6.628925e-06 -2.645537e-07 -1.099531e-09)	(5.398525e-06 -6.469242e-07 -2.472928e-11)	(1.230400e-06 3.823706e-07 -1.074802e-09)
0.264568      	(5.880597e-06 -9.346379e-07 -1.406169e-09)	(4.651642e-06 -1.352345e-06 -2.307285e-11)	(1.228956e-06 4.177069e-07 -1.383096e-09)
0.267693      	(6.390220e-06 -4.441404e-08 -1.545353e-09)	(5.163322e-06 -4.784400e-07 -2.013608e-11)	(1.226899e-06 4.340260e-07 -1.525217e-09)
0.270818      	(6.046506e-06 3.725133e-07 -1.672862e-09)	(4.832219e-06 -6.175857e-08 -1.604701e-11)	(1.214287e-06 4.342718e-07 -1.656815e-09)
0.273943      	(6.343968e-06 -2.031898e-07 -1.757803e-09)	(5.134231e-06 -6.250778e-07 -1.736537e-12)	(1.209737e-06 4.218880e-07 -1.756067e-09)
0.277068      	(6.206776e-06 3.606310e-07 -1.851765e-09)	(5.004201e-06 -5.673217e-08 -1.789827e-12)	(1.202575e-06 4.173631e-07 -1.849975e-09)
0.280193      	(5.249270e-06 7.901001e-07 -1.933573e-09)	(4.059607e-06 3.604013e-07 1.966996e-13)	(1.189663e-06 4.296988e-07 -1.933770e-09)
0.283318      	(6.144034e-06 9.746637e-07 -2.002320e-09)	(4.959238e-06 5.319237e-07 4.754460e-12)	(1.184796e-06 4.427400e-07 -2.007075e-09)
0.286443      	(5.641507e-06 7.352737e-07 -2.042149e-09)	(4.461135e-06 2.837811e-07 9.678223e-12)	(1.180372e-06 4.514926e-07 -2.051827e-09)
0.289568      	(5.694540e-06 1.349869e-06 -2.025709e-09)	(4.524400e-06 8.892268e-07 2.096421e-11)	(1.170140e-06 4.606423e-07 -2.046673e-09)
0.292693      	(5.832294e-06 5.111913e-07 -2.137087e-09)	(4.666732e-06 4.769458e-08 2.503463e-11)	(1.165562e-06 4.634967e-07 -2.162122e-09)
0.295818      	(5.911678e-06 1.345404e-06 -2.235796e-09)	(4.751369e-06 8.758311e-07 3.085647e-11)	(1.160309e-06 4.695728e-07 -2.266653e-09)
0.298943      	(6.287049e-06 1.252831e-06 -2.260216e-09)	(5.131036e-06 7.754891e-07 3.803771e-11)	(1.156013e-06 4.773415e-07 -2.298254e-09)
0.302068      	(5.885529e-06 1.405280e-06 -2.271839e-09)	(4.735534e-06 9.203609e-07 4.911618e-11)	(1.149996e-06 4.849188e-07 -2.320955e-09)
0.305193      	(5.382933e-06 1.547161e-06 -2.306458e-09)	(4.243264e-06 1.051410e-06 3.957584e-11)	(1.139669e-06 4.957509e-07 -2.346034e-09)
0.308318      	(5.602176e-06 1.767609e-06 -2.310014e-09)	(4.473332e-06 1.259536e-06 4.633780e-11)	(1.128844e-06 5.080732e-07 -2.356352e-09)
0.311443      	(6.151095e-06 1.957402e-06 -2.307666e-09)	(5.028045e-06 1.439433e-06 5.633902e-11)	(1.123051e-06 5.179687e-07 -2.364005e-09)
0.314568      	(5.469818e-06 2.002142e-06 -2.252808e-09)	(4.351530e-06 1.472246e-06 6.448983e-11)	(1.118288e-06 5.298957e-07 -2.317298e-09)
0.317693      	(5.872090e-06 2.131225e-06 -2.256783e-09)	(4.757584e-06 1.588602e-06 7.196231e-11)	(1.114507e-06 5.426233e-07 -2.328746e-09)
0.320818      	(6.034659e-06 2.132590e-06 -2.259219e-09)	(4.922472e-06 1.575909e-06 7.726513e-11)	(1.112187e-06 5.566814e-07 -2.336484e-09)
0.323943      	(5.637985e-06 2.354680e-06 -2.204540e-09)	(4.529743e-06 1.780025e-06 7.995426e-11)	(1.108243e-06 5.746549e-07 -2.284494e-09)
0.327068      	(6.286692e-06 2.444992e-06 -2.173069e-09)	(5.180365e-06 1.851339e-06 8.577084e-11)	(1.106327e-06 5.936529e-07 -2.258840e-09)
0.330193      	(5.899031e-06 2.836779e-06 -2.131801e-09)	(4.796602e-06 2.221481e-06 9.016794e-11)	(1.102429e-06 6.152984e-07 -2.221969e-09)
0.333318      	(6.280977e-06 2.602596e-06 -2.080352e-09)	(5.180433e-06 1.965941e-06 9.219384e-11)	(1.100544e-06 6.366547e-07 -2.172546e-09)
0.336443      	(6.221041e-06 2.712502e-06 -2.041779e-09)	(5.121688e-06 2.054040e-06 9.934538e-11)	(1.099353e-06 6.584628e-07 -2.141124e-09)
0.339568      	(6.003381e-06 3.087848e-06 -2.035341e-09)	(4.906409e-06 2.405649e-06 1.047997e-10)	(1.096972e-06 6.821990e-07 -2.140141e-09)
0.342693      	(6.471268e-06 2.999391e-06 -2.046331e-09)	(5.374192e-06 2.291887e-06 1.103103e-10)	(1.097077e-06 7.075040e-07 -2.156642e-09)
0.345818      	(6.574770e-06 3.098780e-06 -2.066990e-09)	(5.475910e-06 2.365798e-06 1.085802e-10)	(1.098859e-06 7.329815e-07 -2.175570e-09)
0.348943      	(6.457671e-06 3.270085e-06 -2.095024e-09)	(5.359722e-06 2.509287e-06 1.088871e-10)	(1.097949e-06 7.607979e-07 -2.203911e-09)
0.352068      	(6.645055e-06 3.264450e-06 -2.141318e-09)	(5.547259e-06 2.476145e-06 1.064821e-10)	(1.097796e-06 7.883044e-07 -2.247800e-09)
0.355193      	(7.060828e-06 3.304106e-06 -2.182838e-09)	(5.960297e-06 2.487992e-06 1.144520e-10)	(1.100532e-06 8.161138e-07 -2.297290e-09)
0.358318      	(7.112199e-06 3.509634e-06 -2.231747e-09)	(6.007490e-06 2.663645e-06 1.322002e-10)	(1.104709e-06 8.459885e-07 -2.363947e-09)
0.361443      	(7.265298e-06 3.878377e-06 -2.312067e-09)	(6.158335e-06 2.995986e-06 1.152699e-10)	(1.106963e-06 8.823906e-07 -2.427337e-09)
0.364568      	(7.488744e-06 3.589795e-06 -2.351111e-09)	(6.378378e-06 2.674309e-06 1.121271e-10)	(1.110366e-06 9.154859e-07 -2.463239e-09)
0.367693      	(7.883561e-06 3.163071e-06 -2.397002e-09)	(6.767428e-06 2.221067e-06 1.391442e-10)	(1.116133e-06 9.420045e-07 -2.536146e-09)
0.370818      	(6.544801e-06 4.741734e-06 -2.434996e-09)	(5.439796e-06 3.753149e-06 1.418496e-10)	(1.105005e-06 9.885852e-07 -2.576846e-09)
0.373943      	(7.963345e-06 3.910523e-06 -2.457997e-09)	(6.861371e-06 2.873382e-06 1.417054e-10)	(1.101974e-06 1.037141e-06 -2.599702e-09)
0.377068      	(8.079997e-06 3.811147e-06 -2.467295e-09)	(6.973942e-06 2.727783e-06 1.572829e-10)	(1.106055e-06 1.083364e-06 -2.624577e-09)
0.380193      	(7.394505e-06 6.006502e-06 -2.482010e-09)	(6.295211e-06 4.851643e-06 1.481050e-10)	(1.099294e-06 1.154859e-06 -2.630115e-09)
0.383318      	(8.807032e-06 2.159835e-06 -2.509096e-09)	(7.705261e-06 9.603817e-07 1.447450e-10)	(1.101771e-06 1.199454e-06 -2.653841e-09)
0.386443      	(8.380487e-06 4.363073e-06 -2.541502e-09)	(7.279247e-06 3.109226e-06 1.535370e-10)	(1.101240e-06 1.253847e-06 -2.695039e-09)
0.389568      	(8.421526e-06 4.210411e-06 -2.565823e-09)	(7.324532e-06 2.891530e-06 1.576525e-10)	(1.096995e-06 1.318881e-06 -2.723476e-09)
0.392693      	(9.146460e-06 3.740339e-06 -2.592088e-09)	(8.053972e-06 2.360478e-06 1.606278e-10)	(1.092488e-06 1.379861e-06 -2.752715e-09)
0.395818      	(9.022860e-06 4.102428e-06 -2.616148e-09)	(7.930904e-06 2.659766e-06 1.627356e-10)	(1.091956e-06 1.442662e-06 -2.778883e-09)
0.398943      	(8.960264e-06 4.067422e-06 -2.648022e-09)	(7.873355e-06 2.558052e-06 1.606671e-10)	(1.086909e-06 1.509370e-06 -2.808689e-09)
0.402068      	(9.377496e-06 3.998726e-06 -2.675486e-09)	(8.300116e-06 2.419106e-06 1.683818e-10)	(1.077380e-06 1.579621e-06 -2.843868e-09)
0.405193      	(9.817759e-06 3.878388e-06 -2.692054e-09)	(8.752260e-06 2.227501e-06 1.662303e-10)	(1.065499e-06 1.650887e-06 -2.858285e-09)
0.408318      	(9.649013e-06 4.058007e-06 -2.712269e-09)	(8.598629e-06 2.332680e-06 1.767042e-10)	(1.050385e-06 1.725327e-06 -2.888973e-09)
0.411443      	(9.878404e-06 4.048466e-06 -2.765591e-09)	(8.844910e-06 2.245863e-06 1.770082e-10)	(1.033494e-06 1.802603e-06 -2.942600e-09)
0.414568      	(9.821787e-06 4.186700e-06 -2.831027e-09)	(8.809498e-06 2.302918e-06 1.809804e-10)	(1.012289e-06 1.883782e-06 -3.012008e-09)
0.417693      	(9.927198e-06 4.196863e-06 -2.902309e-09)	(8.940676e-06 2.228793e-06 1.873919e-10)	(9.865221e-07 1.968070e-06 -3.089701e-09)
0.420818      	(9.978619e-06 4.120283e-06 -2.956583e-09)	(9.019633e-06 2.065861e-06 1.888672e-10)	(9.589857e-07 2.054422e-06 -3.145450e-09)
0.423943      	(1.015081e-05 4.129494e-06 -3.003170e-09)	(9.223187e-06 1.986034e-06 1.980541e-10)	(9.276254e-07 2.143459e-06 -3.201224e-09)
0.427068      	(1.015680e-05 4.184859e-06 -3.067798e-09)	(9.264504e-06 1.950464e-06 2.049532e-10)	(8.922981e-07 2.234394e-06 -3.272751e-09)
0.430193      	(1.043769e-05 4.254581e-06 -3.141009e-09)	(9.582657e-06 1.927033e-06 2.100905e-10)	(8.550346e-07 2.327548e-06 -3.351099e-09)
0.433318      	(1.035308e-05 4.279173e-06 -3.230996e-09)	(9.539695e-06 1.855398e-06 2.168346e-10)	(8.133838e-07 2.423776e-06 -3.447831e-09)
0.436443      	(1.042724e-05 4.295267e-06 -3.342666e-09)	(9.659270e-06 1.773356e-06 2.284190e-10)	(7.679716e-07 2.521911e-06 -3.571085e-09)
0.439568      	(1.037600e-05 4.214691e-06 -3.467028e-09)	(9.653168e-06 1.597743e-06 2.388198e-10)	(7.228305e-07 2.616949e-06 -3.705848e-09)
0.442693      	(1.082896e-05 2.670708e-06 -3.556680e-09)	(1.015040e-05 -3.213149e-08 2.474949e-10)	(6.785642e-07 2.702839e-06 -3.804174e-09)
0.445818      	(1.097579e-05 3.062901e-06 -3.648430e-09)	(1.034179e-05 2.661121e-07 2.488663e-10)	(6.339934e-07 2.796789e-06 -3.897296e-09)
0.448943      	(1.060045e-05 3.943074e-06 -3.761461e-09)	(1.002698e-05 1.036511e-06 2.535476e-10)	(5.734756e-07 2.906564e-06 -4.015008e-09)
0.452068      	(1.034889e-05 3.831486e-06 -3.860956e-09)	(9.846905e-06 8.109510e-07 2.601743e-10)	(5.019890e-07 3.020535e-06 -4.121130e-09)
0.455193      	(1.001547e-05 3.891540e-06 -3.948056e-09)	(9.586100e-06 7.566580e-07 2.652206e-10)	(4.293657e-07 3.134882e-06 -4.213277e-09)
0.458318      	(1.071619e-05 3.841993e-06 -4.044661e-09)	(1.036430e-05 5.926800e-07 2.761923e-10)	(3.518896e-07 3.249313e-06 -4.320853e-09)
0.461443      	(1.020928e-05 3.742142e-06 -4.145455e-09)	(9.934093e-06 3.789549e-07 2.833632e-10)	(2.751907e-07 3.363187e-06 -4.428818e-09)
0.464568      	(1.053244e-05 3.783915e-06 -4.220985e-09)	(1.033401e-05 3.072135e-07 2.974528e-10)	(1.984295e-07 3.476701e-06 -4.518438e-09)
0.467693      	(1.216385e-05 2.645435e-06 -4.293220e-09)	(1.203148e-05 -9.369362e-07 2.985388e-10)	(1.323675e-07 3.582371e-06 -4.591759e-09)
0.470818      	(1.093267e-05 2.782065e-06 -4.373536e-09)	(1.087995e-05 -9.130455e-07 2.981974e-10)	(5.271342e-08 3.695111e-06 -4.671733e-09)
0.473943      	(1.016939e-05 3.717100e-06 -4.448274e-09)	(1.021159e-05 -1.040977e-07 3.180621e-10)	(-4.219405e-08 3.821198e-06 -4.766336e-09)
0.477068      	(1.001595e-05 3.821730e-06 -4.503928e-09)	(1.015273e-05 -1.247429e-07 3.328952e-10)	(-1.367736e-07 3.946473e-06 -4.836823e-09)
0.480193      	(1.007445e-05 3.547717e-06 -4.563022e-09)	(1.029932e-05 -5.142511e-07 3.375715e-10)	(-2.248692e-07 4.061968e-06 -4.900593e-09)
0.483318      	(1.007629e-05 3.524506e-06 -4.610979e-09)	(1.038741e-05 -6.459034e-07 3.467848e-10)	(-3.111212e-07 4.170409e-06 -4.957763e-09)
0.486443      	(9.981405e-06 3.581437e-06 -4.656731e-09)	(1.037805e-05 -6.939076e-07 3.564371e-10)	(-3.966428e-07 4.275344e-06 -5.013168e-09)
0.489568      	(9.780061e-06 3.654971e-06 -4.707695e-09)	(1.026013e-05 -7.212518e-07 3.594795e-10)	(-4.800679e-07 4.376222e-06 -5.067175e-09)
0.492693      	(9.845842e-06 3.666456e-06 -4.727115e-09)	(1.040694e-05 -8.058092e-07 3.662057e-10)	(-5.610969e-07 4.472266e-06 -5.093321e-09)
0.495818      	(9.676919e-06 3.613973e-06 -4.728494e-09)	(1.031649e-05 -9.478414e-07 3.701389e-10)	(-6.395722e-07 4.561814e-06 -5.098632e-09)
0.498943      	(9.321876e-06 3.749542e-06 -4.714434e-09)	(1.004164e-05 -8.968654e-07 3.715041e-10)	(-7.197615e-07 4.646408e-06 -5.085938e-09)
0.502068      	(9.328994e-06 3.679541e-06 -4.703512e-09)	(1.012673e-05 -1.045511e-06 3.734215e-10)	(-7.977339e-07 4.725051e-06 -5.076934e-09)
0.505193      	(9.299536e-06 3.790125e-06 -4.701300e-09)	(1.017220e-05 -1.007016e-06 3.776534e-10)	(-8.726671e-07 4.797141e-06 -5.078954e-09)
0.508318      	(9.135209e-06 3.801891e-06 -4.707565e-09)	(1.007917e-05 -1.059753e-06 3.782367e-10)	(-9.439594e-07 4.861644e-06 -5.085802e-09)
0.511443      	(8.829246e-06 3.914313e-06 -4.663179e-09)	(9.844164e-06 -1.004924e-06 3.798562e-10)	(-1.014918e-06 4.919237e-06 -5.043035e-09)
0.514568      	(8.682608e-06 3.996749e-06 -4.601075e-09)	(9.768465e-06 -9.749576e-07 3.803961e-10)	(-1.085856e-06 4.971707e-06 -4.981471e-09)
0.517693      	(8.559962e-06 4.103127e-06 -4.550508e-09)	(9.715109e-06 -9.169803e-07 3.745046e-10)	(-1.155147e-06 5.020108e-06 -4.925013e-09)
0.520818      	(8.284328e-06 4.235040e-06 -4.501579e-09)	(9.505558e-06 -8.287409e-07 3.729358e-10)	(-1.221230e-06 5.063781e-06 -4.874514e-09)
0.523943      	(8.041454e-06 4.296278e-06 -4.444084e-09)	(9.326165e-06 -8.056758e-07 3.732453e-10)	(-1.284711e-06 5.101953e-06 -4.817329e-09)
0.527068      	(7.982860e-06 4.081899e-06 -4.413398e-09)	(9.329299e-06 -1.049619e-06 3.684755e-10)	(-1.346439e-06 5.131518e-06 -4.781873e-09)
0.530193      	(7.764102e-06 4.699230e-06 -4.389591e-09)	(9.174000e-06 -4.619231e-07 3.648356e-10)	(-1.409898e-06 5.161153e-06 -4.754427e-09)
0.533318      	(8.055231e-06 3.415649e-06 -4.364592e-09)	(9.520607e-06 -1.760762e-06 3.532758e-10)	(-1.465375e-06 5.176411e-06 -4.717868e-09)
0.536443      	(7.099793e-06 4.622490e-06 -4.291643e-09)	(8.624469e-06 -5.711017e-07 3.528936e-10)	(-1.524675e-06 5.193592e-06 -4.644537e-09)
0.539568      	(7.391708e-06 3.985984e-06 -4.227312e-09)	(8.974961e-06 -1.219239e-06 3.462187e-10)	(-1.583252e-06 5.205223e-06 -4.573531e-09)
0.542693      	(6.827656e-06 4.298852e-06 -4.193181e-09)	(8.469170e-06 -9.116615e-07 3.399496e-10)	(-1.641514e-06 5.210513e-06 -4.533130e-09)
0.545818      	(6.974810e-06 4.491167e-06 -4.176224e-09)	(8.670600e-06 -7.225042e-07 3.359280e-10)	(-1.695790e-06 5.213671e-06 -4.512152e-09)
0.548943      	(6.332503e-06 4.873579e-06 -4.170490e-09)	(8.082422e-06 -3.409696e-07 3.311842e-10)	(-1.749919e-06 5.214549e-06 -4.501674e-09)
0.552068      	(7.045063e-06 3.523846e-06 -4.187750e-09)	(8.839919e-06 -1.672452e-06 3.179896e-10)	(-1.794856e-06 5.196298e-06 -4.505740e-09)
0.555193      	(5.924262e-06 4.793507e-06 -4.214569e-09)	(7.765125e-06 -3.918600e-07 3.177150e-10)	(-1.840863e-06 5.185367e-06 -4.532284e-09)
0.558318      	(5.581297e-06 5.001674e-06 -4.270238e-09)	(7.479741e-06 -1.775257e-07 3.138494e-10)	(-1.898444e-06 5.179199e-06 -4.584088e-09)
0.561443      	(5.695091e-06 4.625060e-06 -4.325052e-09)	(7.647175e-06 -5.366032e-07 3.092500e-10)	(-1.952083e-06 5.161663e-06 -4.634302e-09)
0.564568      	(4.528634e-06 5.300785e-06 -4.373009e-09)	(6.527857e-06 1.543696e-07 3.134861e-10)	(-1.999222e-06 5.146416e-06 -4.686495e-09)
0.567693      	(4.985882e-06 5.404454e-06 -4.407355e-09)	(7.029287e-06 2.726703e-07 3.065745e-10)	(-2.043405e-06 5.131784e-06 -4.713929e-09)
0.570818      	(4.295924e-06 5.293619e-06 -4.448204e-09)	(6.389724e-06 1.798895e-07 3.046004e-10)	(-2.093799e-06 5.113730e-06 -4.752805e-09)
0.573943      	(4.383453e-06 5.396894e-06 -4.504754e-09)	(6.522817e-06 3.057328e-07 3.016427e-10)	(-2.139364e-06 5.091161e-06 -4.806397e-09)
0.577068      	(4.064897e-06 5.526887e-06 -4.578571e-09)	(6.249175e-06 4.588633e-07 2.987977e-10)	(-2.184278e-06 5.068023e-06 -4.877369e-09)
0.580193      	(3.418489e-06 5.743984e-06 -4.654628e-09)	(5.648741e-06 6.971101e-07 2.977729e-10)	(-2.230251e-06 5.046874e-06 -4.952400e-09)
0.583318      	(3.583548e-06 5.540948e-06 -4.746829e-09)	(5.856788e-06 5.218551e-07 2.986982e-10)	(-2.273240e-06 5.019093e-06 -5.045527e-09)
0.586443      	(3.312377e-06 5.646322e-06 -4.863903e-09)	(5.624547e-06 6.591879e-07 2.978193e-10)	(-2.312170e-06 4.987134e-06 -5.161722e-09)
0.589568      	(3.093026e-06 5.636752e-06 -5.005041e-09)	(5.442943e-06 6.821879e-07 2.970020e-10)	(-2.349917e-06 4.954564e-06 -5.302043e-09)
0.592693      	(2.931478e-06 5.641149e-06 -5.152535e-09)	(5.317404e-06 7.207055e-07 2.970444e-10)	(-2.385926e-06 4.920443e-06 -5.449580e-09)
0.595818      	(2.902291e-06 5.536400e-06 -5.277673e-09)	(5.321549e-06 6.522540e-07 2.960155e-10)	(-2.419258e-06 4.884146e-06 -5.573688e-09)
0.598943      	(2.813669e-06 5.628697e-06 -5.415095e-09)	(5.265761e-06 7.825948e-07 2.959957e-10)	(-2.452092e-06 4.846102e-06 -5.711091e-09)
0.602068      	(2.205456e-06 5.603994e-06 -5.552777e-09)	(4.688935e-06 7.963636e-07 2.973898e-10)	(-2.483480e-06 4.807631e-06 -5.850167e-09)
0.605193      	(2.067688e-06 5.658951e-06 -5.699943e-09)	(4.578942e-06 8.904466e-07 2.975862e-10)	(-2.511253e-06 4.768504e-06 -5.997530e-09)
0.608318      	(1.926058e-06 5.651884e-06 -5.824243e-09)	(4.463691e-06 9.232303e-07 2.973793e-10)	(-2.537634e-06 4.728654e-06 -6.121622e-09)
0.611443      	(2.062156e-06 5.377410e-06 -5.948903e-09)	(4.626539e-06 6.881260e-07 2.953736e-10)	(-2.564383e-06 4.689284e-06 -6.244277e-09)
0.614568      	(1.744915e-06 5.493977e-06 -6.062193e-09)	(4.333142e-06 8.457999e-07 2.960851e-10)	(-2.588226e-06 4.648177e-06 -6.358278e-09)
0.617693      	(1.817464e-06 5.364935e-06 -6.152425e-09)	(4.428927e-06 7.566893e-07 2.977318e-10)	(-2.611463e-06 4.608246e-06 -6.450157e-09)
0.620818      	(1.753297e-06 5.332801e-06 -6.249484e-09)	(4.386601e-06 7.635333e-07 2.966900e-10)	(-2.633304e-06 4.569268e-06 -6.546174e-09)
0.623943      	(1.649518e-06 5.337938e-06 -6.348957e-09)	(4.304972e-06 8.071506e-07 2.964991e-10)	(-2.655453e-06 4.530788e-06 -6.645456e-09)
0.627068      	(1.594175e-06 5.223276e-06 -6.459426e-09)	(4.270555e-06 7.309816e-07 2.950636e-10)	(-2.676380e-06 4.492294e-06 -6.754490e-09)
0.630193      	(1.567904e-06 5.164782e-06 -6.578619e-09)	(4.264344e-06 7.101542e-07 2.955531e-10)	(-2.696440e-06 4.454628e-06 -6.874172e-09)
0.633318      	(1.556591e-06 5.113872e-06 -6.689357e-09)	(4.272622e-06 6.972261e-07 2.945925e-10)	(-2.716031e-06 4.416646e-06 -6.983950e-09)
0.636443      	(1.813746e-06 4.912690e-06 -6.813644e-09)	(4.547040e-06 5.357104e-07 2.942702e-10)	(-2.733294e-06 4.376980e-06 -7.107914e-09)
0.639568      	(1.382483e-06 4.833595e-06 -6.922294e-09)	(4.130131e-06 4.975686e-07 2.931506e-10)	(-2.747647e-06 4.336027e-06 -7.215445e-09)
0.642693      	(1.220225e-06 4.873660e-06 -6.977707e-09)	(3.981358e-06 5.777794e-07 2.906248e-10)	(-2.761132e-06 4.295881e-06 -7.268332e-09)
0.645818      	(1.338511e-06 4.958151e-06 -7.024621e-09)	(4.115006e-06 6.981310e-07 2.910073e-10)	(-2.776495e-06 4.260020e-06 -7.315628e-09)
0.648943      	(1.425696e-06 4.654188e-06 -7.089228e-09)	(4.217085e-06 4.299629e-07 2.891365e-10)	(-2.791389e-06 4.224225e-06 -7.378365e-09)
0.652068      	(1.416948e-06 4.464906e-06 -7.152314e-09)	(4.219362e-06 2.780290e-07 2.883039e-10)	(-2.802414e-06 4.186877e-06 -7.440618e-09)
0.655193      	(1.375689e-06 4.541951e-06 -7.214345e-09)	(4.187777e-06 3.918644e-07 2.866060e-10)	(-2.812088e-06 4.150086e-06 -7.500951e-09)
0.658318      	(1.310048e-06 4.162220e-06 -7.271898e-09)	(4.130271e-06 4.828763e-08 2.846808e-10)	(-2.820223e-06 4.113932e-06 -7.556579e-09)
0.661443      	(1.257088e-06 4.437376e-06 -7.319922e-09)	(4.084006e-06 3.590043e-07 2.828002e-10)	(-2.826918e-06 4.078372e-06 -7.602722e-09)
0.664568      	(1.249384e-06 4.101906e-06 -7.358862e-09)	(4.083446e-06 5.878947e-08 2.804905e-10)	(-2.834061e-06 4.043116e-06 -7.639352e-09)
0.667693      	(1.499400e-06 4.121144e-06 -7.406378e-09)	(4.339490e-06 1.128754e-07 2.788494e-10)	(-2.840090e-06 4.008269e-06 -7.685227e-09)
0.670818      	(1.189664e-06 4.041448e-06 -7.443994e-09)	(4.031603e-06 6.696751e-08 2.762453e-10)	(-2.841939e-06 3.974481e-06 -7.720239e-09)
0.673943      	(1.329152e-06 4.045783e-06 -7.475155e-09)	(4.173667e-06 1.053091e-07 2.743418e-10)	(-2.844515e-06 3.940474e-06 -7.749497e-09)
0.677068      	(1.452058e-06 3.862366e-06 -7.536475e-09)	(4.298126e-06 -4.433542e-08 2.708776e-10)	(-2.846068e-06 3.906702e-06 -7.807352e-09)
0.680193      	(1.372967e-06 3.896002e-06 -7.585410e-09)	(4.220761e-06 2.214309e-08 2.652367e-10)	(-2.847794e-06 3.873859e-06 -7.850647e-09)
0.683318      	(1.309907e-06 3.863022e-06 -7.595702e-09)	(4.159502e-06 1.918195e-08 2.660164e-10)	(-2.849595e-06 3.843840e-06 -7.861718e-09)