# Force       
# CofR        : 0.000000e+00 0.000000e+00 0.000000e+00
#
# Time        	total_x total_y total_z	pressure_x pressure_y pressure_z	viscous_x viscous_y viscous_z
0.0075        	9.617920e-05 8.331565e-05 6.311357e+01	8.323881e-05 4.605886e-05 6.282414e+01	1.294039e-05 3.725679e-05 2.894253e-01
0.015         	-1.117113e-04 -3.251248e-04 -7.838006e+00	-1.220904e-04 -3.548857e-04 -8.053164e+00	1.037903e-05 2.976084e-05 2.151584e-01
0.0225        	2.193782e-05 7.334614e-05 -2.282022e+00	7.377541e-06 4.653123e-05 -2.384736e+00	1.456027e-05 2.681491e-05 1.027134e-01
0.03          	-3.019929e-05 -7.407877e-05 5.401744e-03	-4.499822e-05 -9.878752e-05 -7.044084e-02	1.479893e-05 2.470875e-05 7.584258e-02
0.0375        	2.043675e-05 6.062236e-05 5.704113e-01	7.815949e-06 3.650645e-05 5.088930e-01	1.262081e-05 2.411591e-05 6.151833e-02
0.045         	-1.181796e-05 -2.146088e-05 6.373425e-01	-2.255900e-05 -4.345436e-05 5.858685e-01	1.074105e-05 2.199348e-05 5.147399e-02
0.0525        	-1.869077e-06 5.173248e-07 6.451629e-01	-1.153787e-05 -1.940015e-05 6.018312e-01	9.668797e-06 1.991747e-05 4.333175e-02
0.06          	-4.957104e-06 -6.478490e-06 6.325964e-01	-1.435346e-05 -2.545084e-05 5.959090e-01	9.396352e-06 1.897235e-05 3.668741e-02
0.0675        	-6.416365e-07 9.530862e-07 6.163097e-01	-9.979771e-06 -1.741197e-05 5.850858e-01	9.338135e-06 1.836506e-05 3.122398e-02
0.075         	-2.240548e-06 -4.124814e-06 5.996647e-01	-1.169398e-05 -2.189794e-05 5.729415e-01	9.453434e-06 1.777312e-05 2.672315e-02
0.0825        	-7.972136e-07 -3.361950e-06 5.842712e-01	-1.047707e-05 -2.059106e-05 5.612616e-01	9.679853e-06 1.722911e-05 2.300958e-02
0.09          	-8.620706e-07 -4.823116e-06 5.719603e-01	-1.078955e-05 -2.156608e-05 5.520290e-01	9.927478e-06 1.674296e-05 1.993128e-02
0.0975        	-5.289655e-07 -5.592054e-06 5.618213e-01	-1.070343e-05 -2.190098e-05 5.444575e-01	1.017447e-05 1.630892e-05 1.736381e-02
0.105         	-2.682934e-07 -6.129575e-06 5.536673e-01	-1.066887e-05 -2.204163e-05 5.384634e-01	1.040058e-05 1.591206e-05 1.520392e-02
0.1125        	-7.128117e-08 -6.630944e-06 5.476620e-01	-1.062959e-05 -2.215856e-05 5.342938e-01	1.055831e-05 1.552761e-05 1.336822e-02
0.12          	5.313932e-08 -6.943146e-06 5.438382e-01	-1.060359e-05 -2.210967e-05 5.320527e-01	1.065673e-05 1.516652e-05 1.178550e-02
0.1275        	2.829003e-07 -7.271885e-06 5.407556e-01	-1.042905e-05 -2.208163e-05 5.303531e-01	1.071195e-05 1.480974e-05 1.040256e-02
0.135         	2.782066e-07 -7.206912e-06 5.385617e-01	-1.046617e-05 -2.169134e-05 5.293805e-01	1.074438e-05 1.448443e-05 9.181237e-03
0.1425        	1.842150e-07 -7.414413e-06 5.374358e-01	-1.056742e-05 -2.159636e-05 5.293437e-01	1.075164e-05 1.418195e-05 8.092084e-03
0.15          	2.881423e-07 -7.031263e-06 5.374611e-01	-1.042929e-05 -2.091423e-05 5.303505e-01	1.071743e-05 1.388297e-05 7.110605e-03
0.1575        	2.812592e-07 -6.976333e-06 5.374101e-01	-1.036540e-05 -2.056273e-05 5.311894e-01	1.064666e-05 1.358640e-05 6.220706e-03
0.165         	2.778538e-07 -6.540895e-06 5.379411e-01	-1.027879e-05 -1.984023e-05 5.325272e-01	1.055665e-05 1.329933e-05 5.413905e-03
0.1725        	1.147842e-08 -6.483704e-06 5.386277e-01	-1.043753e-05 -1.950933e-05 5.339556e-01	1.044900e-05 1.302563e-05 4.672134e-03
0.18          	8.502463e-08 -6.458453e-06 5.403965e-01	-1.024945e-05 -1.921758e-05 5.364084e-01	1.033447e-05 1.275913e-05 3.988132e-03
0.1875        	-1.611034e-07 -6.252560e-06 5.419747e-01	-1.037119e-05 -1.876085e-05 5.386153e-01	1.021009e-05 1.250829e-05 3.359421e-03
0.195         	-4.084474e-07 -5.921628e-06 5.435019e-01	-1.048444e-05 -1.819811e-05 5.407207e-01	1.007599e-05 1.227648e-05 2.781258e-03
0.2025        	-5.227175e-07 -5.995034e-06 5.452580e-01	-1.043598e-05 -1.807631e-05 5.430078e-01	9.913267e-06 1.208128e-05 2.250132e-03
0.21          	-3.865160e-07 -6.182823e-06 5.468889e-01	-1.011867e-05 -1.813233e-05 5.451282e-01	9.732152e-06 1.194951e-05 1.760683e-03
0.2175        	-1.016459e-06 -4.897975e-06 5.490692e-01	-1.062791e-05 -1.659674e-05 5.477600e-01	9.611449e-06 1.169876e-05 1.309164e-03
0.225         	-9.278207e-07 -5.087276e-06 5.513026e-01	-1.039632e-05 -1.655443e-05 5.504050e-01	9.468495e-06 1.146715e-05 8.975270e-04
0.2325        	-1.143245e-06 -4.848785e-06 5.533806e-01	-1.041497e-05 -1.610611e-05 5.528571e-01	9.271722e-06 1.125733e-05 5.234377e-04
0.24          	-1.619659e-06 -4.874853e-06 5.554048e-01	-1.078704e-05 -1.602879e-05 5.552243e-01	9.167382e-06 1.115393e-05 1.804578e-04
0.2475        	-1.823035e-06 -4.524506e-06 5.574365e-01	-1.086059e-05 -1.550050e-05 5.575708e-01	9.037554e-06 1.097599e-05 -1.343416e-04
0.255         	-1.844501e-06 -4.425197e-06 5.592846e-01	-1.072383e-05 -1.519987e-05 5.597059e-01	8.879327e-06 1.077467e-05 -4.213788e-04
0.2625        	-2.511291e-06 -4.693093e-06 5.616633e-01	-1.123828e-05 -1.528091e-05 5.623469e-01	8.726990e-06 1.058782e-05 -6.835365e-04
0.27          	-2.422441e-06 -4.144397e-06 5.638159e-01	-1.098857e-05 -1.454765e-05 5.647383e-01	8.566124e-06 1.040326e-05 -9.223763e-04
0.2775        	-2.611953e-06 -3.713564e-06 5.657258e-01	-1.102656e-05 -1.395379e-05 5.668644e-01	8.414607e-06 1.024022e-05 -1.138539e-03
0.285         	-2.532606e-06 -3.449473e-06 5.676954e-01	-1.083863e-05 -1.354621e-05 5.690286e-01	8.306026e-06 1.009674e-05 -1.333177e-03
0.2925        	-2.853175e-06 -3.104009e-06 5.695418e-01	-1.105135e-05 -1.307233e-05 5.710501e-01	8.198178e-06 9.968323e-06 -1.508302e-03
0.3           	-2.872026e-06 -2.655970e-06 5.711770e-01	-1.095488e-05 -1.249711e-05 5.728418e-01	8.082857e-06 9.841138e-06 -1.664810e-03
0.3075        	-3.009241e-06 -2.467794e-06 5.730345e-01	-1.097237e-05 -1.217735e-05 5.748386e-01	7.963127e-06 9.709557e-06 -1.804186e-03
0.315         	-3.050718e-06 -2.109714e-06 5.748865e-01	-1.087861e-05 -1.169127e-05 5.768145e-01	7.827891e-06 9.581559e-06 -1.927949e-03
0.3225        	-3.234599e-06 -1.791982e-06 5.765206e-01	-1.092401e-05 -1.124374e-05 5.785576e-01	7.689413e-06 9.451754e-06 -2.036930e-03
0.33          	-3.323691e-06 -1.445046e-06 5.779589e-01	-1.087697e-05 -1.076668e-05 5.800909e-01	7.553275e-06 9.321629e-06 -2.132062e-03
0.3375        	-3.305960e-06 -1.237229e-06 5.793364e-01	-1.072022e-05 -1.042264e-05 5.815506e-01	7.414263e-06 9.185408e-06 -2.214218e-03
0.345         	-3.541925e-06 -9.509678e-07 5.806210e-01	-1.080847e-05 -1.000543e-05 5.829051e-01	7.266548e-06 9.054459e-06 -2.284137e-03
0.3525        	-3.525598e-06 -7.106707e-07 5.818118e-01	-1.065173e-05 -9.636334e-06 5.841546e-01	7.126128e-06 8.925663e-06 -2.342799e-03
0.36          	-3.640436e-06 -3.815622e-07 5.830491e-01	-1.062785e-05 -9.183487e-06 5.854407e-01	6.987415e-06 8.801925e-06 -2.391586e-03
0.3675        	-3.632214e-06 8.568602e-08 5.842737e-01	-1.048173e-05 -8.602710e-06 5.867050e-01	6.849518e-06 8.688396e-06 -2.431326e-03
0.375         	-3.725624e-06 2.522033e-07 5.851789e-01	-1.044122e-05 -8.322022e-06 5.876417e-01	6.715599e-06 8.574225e-06 -2.462789e-03
0.3825        	-3.845210e-06 5.117276e-07 5.860453e-01	-1.043361e-05 -7.947128e-06 5.885316e-01	6.588396e-06 8.458856e-06 -2.486289e-03
0.39          	-3.971285e-06 9.342649e-07 5.868187e-01	-1.042964e-05 -7.421508e-06 5.893213e-01	6.458351e-06 8.355773e-06 -2.502511e-03
0.3975        	-4.035628e-06 1.205767e-06 5.873897e-01	-1.036653e-05 -7.051324e-06 5.899021e-01	6.330906e-06 8.257092e-06 -2.512413e-03
0.405         	-3.969999e-06 1.206612e-06 5.878857e-01	-1.019074e-05 -6.953719e-06 5.904023e-01	6.220740e-06 8.160331e-06 -2.516635e-03
0.4125        	-4.229801e-06 1.181270e-06 5.883496e-01	-1.033275e-05 -6.903475e-06 5.908651e-01	6.102950e-06 8.084745e-06 -2.515563e-03
0.42          	-4.181301e-06 1.282902e-06 5.887593e-01	-1.017298e-05 -6.745867e-06 5.912694e-01	5.991681e-06 8.028768e-06 -2.510146e-03
0.4275        	-4.391119e-06 1.651607e-06 5.890584e-01	-1.026695e-05 -6.339897e-06 5.915595e-01	5.875829e-06 7.991505e-06 -2.501134e-03
0.435         	-4.407589e-06 1.795193e-06 5.891976e-01	-1.017072e-05 -6.155695e-06 5.916862e-01	5.763129e-06 7.950888e-06 -2.488575e-03
0.4425        	-4.464760e-06 2.213563e-06 5.892481e-01	-1.012373e-05 -5.691272e-06 5.917211e-01	5.658970e-06 7.904835e-06 -2.473007e-03
0.45          	-4.472727e-06 2.391966e-06 5.890939e-01	-1.003050e-05 -5.448361e-06 5.915488e-01	5.557778e-06 7.840327e-06 -2.454837e-03
0.4575        	-4.510041e-06 2.631048e-06 5.889183e-01	-9.967612e-06 -5.129144e-06 5.913522e-01	5.457571e-06 7.760192e-06 -2.433916e-03
0.465         	-4.668684e-06 2.741380e-06 5.886440e-01	-1.002218e-05 -4.933290e-06 5.910545e-01	5.353497e-06 7.674670e-06 -2.410499e-03
0.4725        	-4.705727e-06 2.989675e-06 5.882466e-01	-9.958327e-06 -4.604388e-06 5.906319e-01	5.252600e-06 7.594063e-06 -2.385209e-03
0.48          	-4.725752e-06 3.042610e-06 5.878234e-01	-9.882000e-06 -4.474601e-06 5.901814e-01	5.156248e-06 7.517211e-06 -2.358052e-03
0.4875        	-4.911743e-06 3.235413e-06 5.873330e-01	-9.966041e-06 -4.216409e-06 5.896623e-01	5.054298e-06 7.451822e-06 -2.329338e-03
0.495         	-4.851897e-06 3.264062e-06 5.866763e-01	-9.810209e-06 -4.123443e-06 5.889757e-01	4.958312e-06 7.387505e-06 -2.299365e-03
0.5025        	-4.877028e-06 3.418429e-06 5.859033e-01	-9.746372e-06 -3.910529e-06 5.881717e-01	4.869344e-06 7.328958e-06 -2.268334e-03
0.51          	-4.971472e-06 3.454761e-06 5.850677e-01	-9.752514e-06 -3.815951e-06 5.873043e-01	4.781042e-06 7.270712e-06 -2.236582e-03
0.5175        	-4.953021e-06 3.619694e-06 5.841229e-01	-9.651475e-06 -3.599824e-06 5.863270e-01	4.698453e-06 7.219518e-06 -2.204145e-03
0.525         	-5.013478e-06 3.705500e-06 5.831820e-01	-9.629489e-06 -3.464971e-06 5.853532e-01	4.616011e-06 7.170471e-06 -2.171107e-03
0.5325        	-5.081345e-06 3.842632e-06 5.819956e-01	-9.613974e-06 -3.280926e-06 5.841335e-01	4.532629e-06 7.123558e-06 -2.137908e-03
0.54          	-5.122493e-06 3.919560e-06 5.807907e-01	-9.573429e-06 -3.156452e-06 5.828951e-01	4.450936e-06 7.076012e-06 -2.104461e-03
0.5475        	-5.156658e-06 3.976977e-06 5.795565e-01	-9.528634e-06 -3.051253e-06 5.816275e-01	4.371976e-06 7.028230e-06 -2.071009e-03
0.555         	-5.152963e-06 4.055599e-06 5.782591e-01	-9.449359e-06 -2.926316e-06 5.802969e-01	4.296396e-06 6.981915e-06 -2.037750e-03
0.5625        	-5.184910e-06 4.133183e-06 5.769196e-01	-9.405298e-06 -2.802019e-06 5.789244e-01	4.220388e-06 6.935202e-06 -2.004739e-03
0.57          	-5.204334e-06 4.147234e-06 5.754342e-01	-9.349448e-06 -2.741030e-06 5.774063e-01	4.145114e-06 6.888264e-06 -1.972016e-03
0.5775        	-5.212190e-06 4.305775e-06 5.738978e-01	-9.284126e-06 -2.542112e-06 5.758375e-01	4.071936e-06 6.847887e-06 -1.939724e-03
0.585         	-5.232853e-06 4.340261e-06 5.723343e-01	-9.236238e-06 -2.469208e-06 5.742421e-01	4.003386e-06 6.809470e-06 -1.907800e-03
0.5925        	-5.325186e-06 4.432010e-06 5.706478e-01	-9.257880e-06 -2.341058e-06 5.725244e-01	3.932694e-06 6.773068e-06 -1.876565e-03
0.6           	-5.268125e-06 4.401601e-06 5.688926e-01	-9.135675e-06 -2.331012e-06 5.707385e-01	3.867550e-06 6.732613e-06 -1.845942e-03
0.6075        	-5.234355e-06 4.468815e-06 5.670600e-01	-9.040893e-06 -2.225126e-06 5.688760e-01	3.806538e-06 6.693941e-06 -1.815953e-03
0.615         	-5.328538e-06 4.478033e-06 5.651462e-01	-9.069695e-06 -2.178434e-06 5.669330e-01	3.741157e-06 6.656467e-06 -1.786795e-03
0.6225        	-5.277070e-06 4.635481e-06 5.633058e-01	-8.955968e-06 -1.989898e-06 5.650640e-01	3.678898e-06 6.625379e-06 -1.758228e-03
0.63          	-5.294189e-06 4.610971e-06 5.612866e-01	-8.911831e-06 -1.979568e-06 5.630172e-01	3.617642e-06 6.590539e-06 -1.730549e-03
0.6375        	-5.312273e-06 4.582199e-06 5.593153e-01	-8.868379e-06 -1.968408e-06 5.610187e-01	3.556106e-06 6.550606e-06 -1.703351e-03
0.645         	-5.351979e-06 4.929663e-06 5.571826e-01	-8.847570e-06 -1.599115e-06 5.588597e-01	3.495590e-06 6.528778e-06 -1.677069e-03
0.6525        	-5.283278e-06 4.771466e-06 5.551600e-01	-8.723187e-06 -1.726996e-06 5.568115e-01	3.439909e-06 6.498462e-06 -1.651504e-03
0.66          	-5.278883e-06 4.756072e-06 5.529635e-01	-8.664598e-06 -1.704870e-06 5.545902e-01	3.385714e-06 6.460942e-06 -1.626657e-03
0.6675        	-5.231574e-06 4.719500e-06 5.507618e-01	-8.564631e-06 -1.705146e-06 5.523643e-01	3.333057e-06 6.424645e-06 -1.602511e-03
0.675         	-5.198809e-06 4.916795e-06 5.485636e-01	-8.474813e-06 -1.477224e-06 5.501426e-01	3.276004e-06 6.394019e-06 -1.578967e-03
0.6825        	-5.171761e-06 4.789521e-06 5.462730e-01	-8.392118e-06 -1.570161e-06 5.478290e-01	3.220357e-06 6.359681e-06 -1.555991e-03
0.69          	-5.214435e-06 4.919368e-06 5.438813e-01	-8.379744e-06 -1.410968e-06 5.454150e-01	3.165309e-06 6.330336e-06 -1.533755e-03
0.6975        	-5.242438e-06 4.934578e-06 5.414798e-01	-8.349036e-06 -1.366142e-06 5.429921e-01	3.106597e-06 6.300720e-06 -1.512305e-03
0.705         	-5.170573e-06 4.965016e-06 5.390264e-01	-8.219053e-06 -1.305796e-06 5.405181e-01	3.048480e-06 6.270812e-06 -1.491681e-03
0.7125        	-5.163306e-06 4.911912e-06 5.366495e-01	-8.161747e-06 -1.328804e-06 5.381210e-01	2.998441e-06 6.240716e-06 -1.471565e-03
0.72          	-5.143013e-06 4.979811e-06 5.341577e-01	-8.091364e-06 -1.232824e-06 5.356097e-01	2.948351e-06 6.212635e-06 -1.452015e-03
0.7275        	-5.125612e-06 4.878077e-06 5.316070e-01	-8.023132e-06 -1.303260e-06 5.330402e-01	2.897520e-06 6.181336e-06 -1.433213e-03
0.735         	-5.171831e-06 5.087187e-06 5.291454e-01	-8.019406e-06 -1.072330e-06 5.305604e-01	2.847576e-06 6.159517e-06 -1.414934e-03
0.7425        	-5.114504e-06 5.003190e-06 5.265387e-01	-7.915946e-06 -1.132031e-06 5.279359e-01	2.801442e-06 6.135221e-06 -1.397254e-03
0.75          	-5.072404e-06 5.024197e-06 5.239642e-01	-7.830897e-06 -1.084347e-06 5.253443e-01	2.758493e-06 6.108545e-06 -1.380157e-03
0.7575        	-5.045979e-06 5.006441e-06 5.213754e-01	-7.762363e-06 -1.075577e-06 5.227390e-01	2.716384e-06 6.082017e-06 -1.363606e-03
0.765         	-5.102274e-06 5.059088e-06 5.186898e-01	-7.773589e-06 -9.988416e-07 5.200375e-01	2.671315e-06 6.057930e-06 -1.347643e-03
0.7725        	-5.058940e-06 5.015356e-06 5.160680e-01	-7.687412e-06 -1.016786e-06 5.174000e-01	2.628472e-06 6.032143e-06 -1.332029e-03
0.78          	-4.904585e-06 4.982918e-06 5.134019e-01	-7.498290e-06 -1.022003e-06 5.147187e-01	2.593705e-06 6.004921e-06 -1.316798e-03
0.7875        	-5.095471e-06 5.063816e-06 5.106464e-01	-7.644663e-06 -9.178131e-07 5.119485e-01	2.549192e-06 5.981629e-06 -1.302117e-03
0.795         	-4.980298e-06 5.114480e-06 5.078855e-01	-7.488325e-06 -8.461158e-07 5.091735e-01	2.508027e-06 5.960596e-06 -1.288022e-03
0.8025        	-4.972145e-06 5.071911e-06 5.051427e-01	-7.442230e-06 -8.641496e-07 5.064170e-01	2.470085e-06 5.936060e-06 -1.274226e-03
0.81          	-4.958720e-06 5.081809e-06 5.024229e-01	-7.387825e-06 -8.263519e-07 5.036836e-01	2.429105e-06 5.908161e-06 -1.260668e-03
0.8175        	-4.867400e-06 5.065368e-06 4.996206e-01	-7.260974e-06 -8.148270e-07 5.008682e-01	2.393574e-06 5.880195e-06 -1.247631e-03
0.825         	-4.990171e-06 5.156872e-06 4.967505e-01	-7.343407e-06 -7.002233e-07 4.979856e-01	2.353236e-06 5.857096e-06 -1.235122e-03
0.8325        	-4.991579e-06 5.083484e-06 4.939303e-01	-7.303683e-06 -7.482376e-07 4.951533e-01	2.312104e-06 5.831722e-06 -1.222971e-03
0.84          	-4.934404e-06 5.077940e-06 4.910704e-01	-7.210600e-06 -7.281876e-07 4.922815e-01	2.276196e-06 5.806128e-06 -1.211150e-03
0.8475        	-4.870913e-06 5.090946e-06 4.882545e-01	-7.112282e-06 -6.908906e-07 4.894542e-01	2.241369e-06 5.781836e-06 -1.199659e-03
0.855         	-4.871528e-06 4.997633e-06 4.853675e-01	-7.076854e-06 -7.547019e-07 4.865559e-01	2.205325e-06 5.752335e-06 -1.188441e-03
0.8625        	-4.874263e-06 5.037336e-06 4.825375e-01	-7.045288e-06 -6.888619e-07 4.837149e-01	2.171025e-06 5.726198e-06 -1.177397e-03
0.87          	-4.886041e-06 5.074854e-06 4.796326e-01	-7.022415e-06 -6.298015e-07 4.807992e-01	2.136374e-06 5.704655e-06 -1.166613e-03
0.8775        	-4.769032e-06 5.044839e-06 4.767609e-01	-6.876379e-06 -6.339458e-07 4.779170e-01	2.107347e-06 5.678784e-06 -1.156110e-03
0.885         	-4.776875e-06 5.069171e-06 4.738539e-01	-6.854713e-06 -5.858057e-07 4.749999e-01	2.077839e-06 5.654977e-06 -1.145917e-03
0.8925        	-4.769116e-06 5.074218e-06 4.709540e-01	-6.816236e-06 -5.568652e-07 4.720899e-01	2.047120e-06 5.631083e-06 -1.135922e-03
0.9           	-4.602829e-06 4.951765e-06 4.680332e-01	-6.626332e-06 -6.507510e-07 4.691593e-01	2.023503e-06 5.602516e-06 -1.126164e-03
0.9075        	-4.838720e-06 5.025358e-06 4.650993e-01	-6.826163e-06 -5.530795e-07 4.662159e-01	1.987443e-06 5.578438e-06 -1.116599e-03
0.915         	-4.700071e-06 5.103379e-06 4.621057e-01	-6.654273e-06 -4.569783e-07 4.632131e-01	1.954202e-06 5.560358e-06 -1.107421e-03
0.9225        	-4.684686e-06 5.008662e-06 4.591403e-01	-6.609766e-06 -5.290938e-07 4.602388e-01	1.925080e-06 5.537756e-06 -1.098514e-03
0.93          	-4.701401e-06 4.992801e-06 4.561538e-01	-6.595529e-06 -5.203081e-07 4.572436e-01	1.894128e-06 5.513109e-06 -1.089852e-03
0.9375        	-4.658593e-06 5.026334e-06 4.531550e-01	-6.522923e-06 -4.645050e-07 4.542365e-01	1.864330e-06 5.490839e-06 -1.081444e-03
0.945         	-4.622766e-06 4.965102e-06 4.501958e-01	-6.458853e-06 -5.011379e-07 4.512690e-01	1.836087e-06 5.466240e-06 -1.073161e-03
0.9525        	-4.623454e-06 5.024087e-06 4.471726e-01	-6.430295e-06 -4.206836e-07 4.482377e-01	1.806841e-06 5.444770e-06 -1.065056e-03
0.96          	-4.578114e-06 4.893755e-06 4.441778e-01	-6.356855e-06 -5.248030e-07 4.452349e-01	1.778741e-06 5.418558e-06 -1.057086e-03
0.9675        	-4.615910e-06 5.160938e-06 4.411870e-01	-6.364427e-06 -2.438923e-07 4.422363e-01	1.748518e-06 5.404830e-06 -1.049294e-03
0.975         	-4.551298e-06 4.908207e-06 4.381837e-01	-6.272219e-06 -4.709437e-07 4.392253e-01	1.720922e-06 5.379151e-06 -1.041638e-03
0.9825        	-4.528069e-06 5.006126e-06 4.351780e-01	-6.222304e-06 -3.487584e-07 4.362120e-01	1.694236e-06 5.354885e-06 -1.034088e-03
0.99          	-4.544000e-06 5.015688e-06 4.321577e-01	-6.209109e-06 -3.193441e-07 4.331845e-01	1.665109e-06 5.335032e-06 -1.026740e-03
0.9975        	-4.522401e-06 5.008080e-06 4.291639e-01	-6.159101e-06 -3.051487e-07 4.301835e-01	1.636700e-06 5.313228e-06 -1.019611e-03
1.005         	-4.515209e-06 4.958039e-06 4.261001e-01	-6.124221e-06 -3.307690e-07 4.271128e-01	1.609012e-06 5.288808e-06 -1.012710e-03
1.0125        	-4.520555e-06 5.063608e-06 4.231102e-01	-6.101387e-06 -2.055907e-07 4.241161e-01	1.580832e-06 5.269199e-06 -1.005926e-03
1.02          	-4.440595e-06 4.912868e-06 4.200880e-01	-5.996885e-06 -3.302824e-07 4.210873e-01	1.556290e-06 5.243150e-06 -9.992340e-04
1.0275        	-4.400118e-06 5.042073e-06 4.170085e-01	-5.933436e-06 -1.801805e-07 4.180013e-01	1.533318e-06 5.222253e-06 -9.928609e-04
1.035         	-4.427756e-06 5.023600e-06 4.139541e-01	-5.934915e-06 -1.785272e-07 4.149408e-01	1.507158e-06 5.202127e-06 -9.866742e-04
1.0425        	-4.368711e-06 4.954926e-06 4.108980e-01	-5.851129e-06 -2.220666e-07 4.118786e-01	1.482418e-06 5.176993e-06 -9.805713e-04
1.05          	-4.330673e-06 4.936564e-06 4.078498e-01	-5.790196e-06 -2.146184e-07 4.088244e-01	1.459523e-06 5.151183e-06 -9.745192e-04
1.0575        	-4.409807e-06 5.018041e-06 4.047841e-01	-5.841455e-06 -1.125511e-07 4.057527e-01	1.431648e-06 5.130592e-06 -9.685864e-04
1.065         	-4.323451e-06 4.980041e-06 4.017293e-01	-5.730483e-06 -1.287388e-07 4.026921e-01	1.407032e-06 5.108780e-06 -9.627869e-04
1.0725        	-4.258195e-06 4.891703e-06 3.986617e-01	-5.644521e-06 -1.897158e-07 3.996187e-01	1.386326e-06 5.081418e-06 -9.570807e-04
1.08          	-4.321246e-06 4.999126e-06 3.956206e-01	-5.682169e-06 -6.221514e-08 3.965720e-01	1.360923e-06 5.061341e-06 -9.514420e-04
1.0875        	-4.212351e-06 4.900265e-06 3.925470e-01	-5.550937e-06 -1.382580e-07 3.934929e-01	1.338586e-06 5.038523e-06 -9.459300e-04
1.095         	-4.251013e-06 4.994351e-06 3.895065e-01	-5.565013e-06 -2.457414e-08 3.904469e-01	1.314000e-06 5.018925e-06 -9.403860e-04
1.1025        	-4.240597e-06 4.907416e-06 3.864392e-01	-5.528717e-06 -8.906747e-08 3.873741e-01	1.288120e-06 4.996483e-06 -9.349672e-04
1.11          	-4.225305e-06 4.944202e-06 3.833613e-01	-5.488147e-06 -3.108826e-08 3.842911e-01	1.262842e-06 4.975291e-06 -9.298104e-04
1.1175        	-4.239068e-06 4.975538e-06 3.802902e-01	-5.476094e-06 1.773375e-08 3.812151e-01	1.237025e-06 4.957804e-06 -9.248225e-04
1.125         	-4.153102e-06 4.883378e-06 3.771988e-01	-5.369697e-06 -5.285118e-08 3.781187e-01	1.216595e-06 4.936229e-06 -9.199132e-04
1.1325        	-4.122408e-06 4.789335e-06 3.741844e-01	-5.320095e-06 -1.206239e-07 3.750994e-01	1.197686e-06 4.909959e-06 -9.149924e-04
1.14          	-4.197118e-06 4.991645e-06 3.710804e-01	-5.370908e-06 9.534940e-08 3.719906e-01	1.173790e-06 4.896295e-06 -9.101999e-04
1.1475        	-4.120994e-06 4.786559e-06 3.680219e-01	-5.274875e-06 -8.837869e-08 3.689274e-01	1.153881e-06 4.874937e-06 -9.055421e-04
1.155         	-4.143963e-06 4.927084e-06 3.649422e-01	-5.277161e-06 7.008695e-08 3.658432e-01	1.133198e-06 4.856997e-06 -9.010382e-04
1.1625        	-4.188280e-06 4.981785e-06 3.618127e-01	-5.297528e-06 1.383147e-07 3.627094e-01	1.109249e-06 4.843471e-06 -8.967724e-04
1.17          	-4.113843e-06 4.843862e-06 3.587420e-01	-5.202697e-06 2.360439e-08 3.596345e-01	1.088854e-06 4.820257e-06 -8.925470e-04
1.1775        	-4.077613e-06 4.870050e-06 3.556729e-01	-5.148532e-06 7.372953e-08 3.565612e-01	1.070919e-06 4.796320e-06 -8.883108e-04
1.185         	-4.088523e-06 4.903565e-06 3.525480e-01	-5.139991e-06 1.273175e-07 3.534322e-01	1.051468e-06 4.776248e-06 -8.842092e-04
1.1925        	-4.039719e-06 4.824062e-06 3.495213e-01	-5.072298e-06 7.014351e-08 3.504014e-01	1.032579e-06 4.753919e-06 -8.800375e-04
1.2           	-4.020843e-06 4.748560e-06 3.464510e-01	-5.033944e-06 2.072732e-08 3.473269e-01	1.013101e-06 4.727833e-06 -8.758824e-04
1.2075        	-4.063805e-06 4.940652e-06 3.433375e-01	-5.054425e-06 2.291145e-07 3.442094e-01	9.906194e-07 4.711537e-06 -8.719279e-04
1.215         	-3.971195e-06 4.822851e-06 3.402899e-01	-4.944323e-06 1.317308e-07 3.411579e-01	9.731278e-07 4.691120e-06 -8.680217e-04
1.2225        	-3.979257e-06 4.772258e-06 3.372389e-01	-4.934999e-06 1.060786e-07 3.381030e-01	9.557426e-07 4.666180e-06 -8.640848e-04
1.23          	-3.967605e-06 4.836125e-06 3.341667e-01	-4.903507e-06 1.905929e-07 3.350269e-01	9.359015e-07 4.645533e-06 -8.602166e-04
1.2375        	-3.920287e-06 4.873574e-06 3.311076e-01	-4.839046e-06 2.457631e-07 3.319641e-01	9.187593e-07 4.627811e-06 -8.564858e-04
1.245         	-4.035903e-06 4.871300e-06 3.280222e-01	-4.931918e-06 2.637551e-07 3.288752e-01	8.960146e-07 4.607545e-06 -8.529202e-04
1.2525        	-3.884817e-06 4.773703e-06 3.249594e-01	-4.763514e-06 1.915369e-07 3.258088e-01	8.786976e-07 4.582166e-06 -8.494002e-04
1.26          	-3.897484e-06 4.826385e-06 3.219089e-01	-4.759357e-06 2.664042e-07 3.227548e-01	8.618728e-07 4.559980e-06 -8.458977e-04
1.2675        	-3.869454e-06 4.791127e-06 3.188595e-01	-4.713346e-06 2.535828e-07 3.197020e-01	8.438915e-07 4.537544e-06 -8.424345e-04
1.275         	-3.926837e-06 4.846772e-06 3.157922e-01	-4.749589e-06 3.289232e-07 3.166313e-01	8.227515e-07 4.517849e-06 -8.390779e-04
1.2825        	-3.864306e-06 4.738673e-06 3.126872e-01	-4.668570e-06 2.456013e-07 3.135232e-01	8.042644e-07 4.493071e-06 -8.359732e-04
1.29          	-3.821250e-06 4.761327e-06 3.096504e-01	-4.609449e-06 2.923059e-07 3.104833e-01	7.881986e-07 4.469021e-06 -8.328246e-04
1.2975        	-3.824080e-06 4.764884e-06 3.065925e-01	-4.595732e-06 3.175076e-07 3.074221e-01	7.716520e-07 4.447376e-06 -8.296643e-04
1.305         	-3.862785e-06 4.841849e-06 3.035279e-01	-4.615412e-06 4.121023e-07 3.043546e-01	7.526266e-07 4.429747e-06 -8.266383e-04
1.3125        	-3.787202e-06 4.703038e-06 3.004716e-01	-4.522858e-06 2.991688e-07 3.012952e-01	7.356556e-07 4.403869e-06 -8.236718e-04
1.32          	-3.756818e-06 4.657547e-06 2.974122e-01	-4.476720e-06 2.813369e-07 2.982330e-01	7.199019e-07 4.376210e-06 -8.208025e-04
1.3275        	-3.844039e-06 4.800821e-06 2.943108e-01	-4.543305e-06 4.427066e-07 2.951289e-01	6.992660e-07 4.358115e-06 -8.180986e-04
1.335         	-3.730922e-06 4.698806e-06 2.912599e-01	-4.413932e-06 3.624411e-07 2.920753e-01	6.830103e-07 4.336365e-06 -8.153792e-04
1.3425        	-3.762719e-06 4.739735e-06 2.882099e-01	-4.428753e-06 4.249575e-07 2.890226e-01	6.660340e-07 4.314778e-06 -8.126809e-04
1.35          	-3.779087e-06 4.748471e-06 2.851822e-01	-4.425762e-06 4.534811e-07 2.859922e-01	6.466745e-07 4.294990e-06 -8.099567e-04
1.3575        	-3.681636e-06 4.648899e-06 2.821582e-01	-4.313999e-06 3.790833e-07 2.829654e-01	6.323631e-07 4.269816e-06 -8.072150e-04
1.365         	-3.741327e-06 4.749263e-06 2.791187e-01	-4.356239e-06 4.993169e-07 2.799233e-01	6.149119e-07 4.249946e-06 -8.045781e-04
1.3725        	-3.725955e-06 4.728636e-06 2.760652e-01	-4.322496e-06 4.978651e-07 2.768673e-01	5.965404e-07 4.230771e-06 -8.020681e-04
1.38          	-3.686746e-06 4.693333e-06 2.730560e-01	-4.267553e-06 4.851874e-07 2.738557e-01	5.808066e-07 4.208145e-06 -7.996262e-04
1.3875        	-3.659687e-06 4.659736e-06 2.700404e-01	-4.225819e-06 4.750940e-07 2.708376e-01	5.661320e-07 4.184642e-06 -7.972012e-04
1.395         	-3.647242e-06 4.638271e-06 2.669789e-01	-4.198220e-06 4.767012e-07 2.677739e-01	5.509782e-07 4.161570e-06 -7.949340e-04
1.4025        	-3.681588e-06 4.667865e-06 2.639308e-01	-4.215023e-06 5.270996e-07 2.647236e-01	5.334345e-07 4.140765e-06 -7.927740e-04
1.41          	-3.662041e-06 4.656124e-06 2.609279e-01	-4.178410e-06 5.354013e-07 2.617185e-01	5.163691e-07 4.120722e-06 -7.906380e-04
1.4175        	-3.639609e-06 4.655036e-06 2.579109e-01	-4.140873e-06 5.546740e-07 2.586994e-01	5.012637e-07 4.100362e-06 -7.885255e-04
1.425         	-3.574956e-06 4.603299e-06 2.548831e-01	-4.063473e-06 5.257043e-07 2.556696e-01	4.885173e-07 4.077595e-06 -7.864878e-04
1.4325        	-3.567848e-06 4.571924e-06 2.518583e-01	-4.042780e-06 5.179440e-07 2.526428e-01	4.749323e-07 4.053980e-06 -7.845061e-04
1.44          	-3.584715e-06 4.643355e-06 2.488624e-01	-4.043774e-06 6.085797e-07 2.496450e-01	4.590589e-07 4.034776e-06 -7.825330e-04
1.4475        	-3.607343e-06 4.611292e-06 2.458360e-01	-4.050702e-06 5.963514e-07 2.466167e-01	4.433598e-07 4.014940e-06 -7.806861e-04
1.455         	-3.503064e-06 4.519880e-06 2.428415e-01	-3.936777e-06 5.296021e-07 2.436203e-01	4.337138e-07 3.990278e-06 -7.788845e-04
1.4625        	-3.567325e-06 4.553178e-06 2.398473e-01	-3.990037e-06 5.838245e-07 2.406244e-01	4.227123e-07 3.969353e-06 -7.770551e-04
1.47          	-3.565214e-06 4.520778e-06 2.368629e-01	-3.976557e-06 5.703392e-07 2.376382e-01	4.113428e-07 3.950439e-06 -7.752102e-04
1.4775        	-3.493046e-06 4.470341e-06 2.338750e-01	-3.897171e-06 5.402330e-07 2.346484e-01	4.041249e-07 3.930108e-06 -7.734566e-04
1.485         	-3.565928e-06 4.533603e-06 2.308797e-01	-3.957422e-06 6.198915e-07 2.316515e-01	3.914931e-07 3.913711e-06 -7.718192e-04
1.4925        	-3.493738e-06 4.531990e-06 2.278663e-01	-3.875627e-06 6.309309e-07 2.286366e-01	3.818890e-07 3.901059e-06 -7.703017e-04
1.5           	-3.481051e-06 4.561120e-06 2.248827e-01	-3.853707e-06 6.766200e-07 2.256515e-01	3.726551e-07 3.884500e-06 -7.688171e-04
1.5075        	-3.422096e-06 4.412186e-06 2.219209e-01	-3.787185e-06 5.490795e-07 2.226883e-01	3.650886e-07 3.863106e-06 -7.673138e-04
1.515         	-3.443642e-06 4.473279e-06 2.189382e-01	-3.793344e-06 6.311437e-07 2.197041e-01	3.497012e-07 3.842135e-06 -7.658709e-04
1.5225        	-3.438048e-06 4.520142e-06 2.159362e-01	-3.771489e-06 6.954706e-07 2.167008e-01	3.334412e-07 3.824671e-06 -7.645945e-04
1.53          	-3.431993e-06 4.475097e-06 2.129237e-01	-3.748968e-06 6.704733e-07 2.136871e-01	3.169749e-07 3.804624e-06 -7.634642e-04
1.5375        	-3.421426e-06 4.483741e-06 2.099592e-01	-3.722753e-06 6.998275e-07 2.107216e-01	3.013264e-07 3.783913e-06 -7.623381e-04
1.545         	-3.337496e-06 4.389716e-06 2.070009e-01	-3.626794e-06 6.302607e-07 2.077620e-01	2.892986e-07 3.759455e-06 -7.611819e-04
1.5525        	-3.381297e-06 4.489134e-06 2.040343e-01	-3.655271e-06 7.496331e-07 2.047944e-01	2.739730e-07 3.739501e-06 -7.600237e-04
1.56          	-3.323360e-06 4.395743e-06 2.010971e-01	-3.582977e-06 6.771039e-07 2.018560e-01	2.596168e-07 3.718639e-06 -7.588622e-04
1.5675        	-3.351391e-06 4.427701e-06 1.981490e-01	-3.595372e-06 7.296020e-07 1.989068e-01	2.439814e-07 3.698099e-06 -7.577487e-04
1.575         	-3.298270e-06 4.454450e-06 1.951897e-01	-3.528038e-06 7.747273e-07 1.959465e-01	2.297683e-07 3.679723e-06 -7.567436e-04
1.5825        	-3.333988e-06 4.416794e-06 1.922658e-01	-3.548117e-06 7.571558e-07 1.930216e-01	2.141293e-07 3.659638e-06 -7.557532e-04
1.59          	-3.299802e-06 4.462234e-06 1.893212e-01	-3.498842e-06 8.204150e-07 1.900761e-01	1.990403e-07 3.641819e-06 -7.548392e-04
1.5975        	-3.244898e-06 4.385423e-06 1.863815e-01	-3.431800e-06 7.648248e-07 1.871355e-01	1.869018e-07 3.620599e-06 -7.540467e-04
1.605         	-3.284544e-06 4.426406e-06 1.834408e-01	-3.456628e-06 8.253807e-07 1.841941e-01	1.720843e-07 3.601025e-06 -7.533164e-04
1.6125        	-3.232069e-06 4.387823e-06 1.805373e-01	-3.390294e-06 8.067692e-07 1.812899e-01	1.582258e-07 3.581054e-06 -7.525510e-04
1.62          	-3.210427e-06 4.370340e-06 1.776230e-01	-3.356209e-06 8.105345e-07 1.783748e-01	1.457819e-07 3.559806e-06 -7.518425e-04
1.6275        	-3.240765e-06 4.360061e-06 1.746969e-01	-3.371702e-06 8.203354e-07 1.754482e-01	1.309377e-07 3.539726e-06 -7.512749e-04
1.635         	-3.272568e-06 4.437555e-06 1.717789e-01	-3.386506e-06 9.139038e-07 1.725297e-01	1.139378e-07 3.523651e-06 -7.508138e-04
1.6425        	-3.200240e-06 4.341585e-06 1.688703e-01	-3.301315e-06 8.382764e-07 1.696207e-01	1.010749e-07 3.503308e-06 -7.504264e-04