# Moment      
# CofR        : (0.000000e+00 0.000000e+00 0.000000e+00)
#
# Time        	(total_x total_y total_z)	(pressure_x pressure_y pressure_z)	(viscous_x viscous_y viscous_z)
0.0075        	(-4.097707e-05 4.697811e-05 -3.534685e-08)	(-3.287019e-05 6.323442e-05 1.203975e-08)	(-8.106879e-06 -1.625631e-05 -4.738660e-08)
0.015         	(-3.023693e-05 -6.513359e-05 -2.877395e-08)	(-2.535413e-05 -4.151363e-05 1.998279e-09)	(-4.882802e-06 -2.361996e-05 -3.077223e-08)
0.0225        	(-7.017416e-06 -3.562624e-05 -1.027760e-08)	(-9.067210e-06 -1.512296e-05 -3.307291e-10)	(2.049795e-06 -2.050328e-05 -9.946868e-09)
0.03          	(-7.119114e-06 -2.909385e-05 -1.497278e-09)	(-1.177674e-05 -1.317094e-05 3.355776e-10)	(4.657622e-06 -1.592291e-05 -1.832856e-09)
0.0375        	(-3.138830e-06 -2.144261e-05 2.709349e-09)	(-8.146455e-06 -8.201332e-06 5.259953e-10)	(5.007625e-06 -1.324127e-05 2.183353e-09)
0.045         	(-2.995605e-06 -1.789200e-05 3.434312e-09)	(-8.023470e-06 -6.266658e-06 5.650726e-10)	(5.027865e-06 -1.162535e-05 2.869239e-09)
0.0525        	(-1.972446e-06 -1.569824e-05 4.104880e-09)	(-6.934732e-06 -5.184254e-06 5.556926e-10)	(4.962286e-06 -1.051399e-05 3.549187e-09)
0.06          	(-1.785338e-06 -1.416831e-05 5.383859e-09)	(-6.667505e-06 -4.497158e-06 5.405000e-10)	(4.882167e-06 -9.671151e-06 4.843359e-09)
0.0675        	(-1.232461e-06 -1.284272e-05 5.904892e-09)	(-6.027350e-06 -3.853955e-06 5.251751e-10)	(4.794889e-06 -8.988764e-06 5.379717e-09)
0.075         	(-6.460568e-07 -1.159692e-05 6.546885e-09)	(-5.366636e-06 -3.171869e-06 5.053774e-10)	(4.720579e-06 -8.425053e-06 6.041508e-09)
0.0825        	(-1.087317e-07 -1.085713e-05 7.359877e-09)	(-4.747963e-06 -2.910941e-06 4.850552e-10)	(4.639231e-06 -7.946194e-06 6.874822e-09)
0.09          	(5.621209e-07 -1.037000e-05 8.081587e-09)	(-3.980813e-06 -2.841749e-06 4.651930e-10)	(4.542934e-06 -7.528250e-06 7.616394e-09)
0.0975        	(9.783172e-07 -9.704674e-06 7.908017e-09)	(-3.454607e-06 -2.543834e-06 4.446961e-10)	(4.432925e-06 -7.160841e-06 7.463321e-09)
0.105         	(1.487555e-06 -9.422261e-06 8.190026e-09)	(-2.818882e-06 -2.586262e-06 4.263806e-10)	(4.306437e-06 -6.835999e-06 7.763646e-09)
0.1125        	(1.703373e-06 -9.048367e-06 8.246380e-09)	(-2.462894e-06 -2.501843e-06 4.080361e-10)	(4.166266e-06 -6.546524e-06 7.838344e-09)
0.12          	(1.737671e-06 -8.837248e-06 8.301218e-09)	(-2.275164e-06 -2.554327e-06 3.916771e-10)	(4.012835e-06 -6.282921e-06 7.909541e-09)
0.1275        	(1.522318e-06 -8.563983e-06 8.348686e-09)	(-2.337494e-06 -2.514662e-06 3.758763e-10)	(3.859812e-06 -6.049321e-06 7.972809e-09)
0.135         	(1.310025e-06 -8.391393e-06 8.280701e-09)	(-2.397748e-06 -2.555521e-06 3.604158e-10)	(3.707773e-06 -5.835872e-06 7.920285e-09)
0.1425        	(1.207674e-06 -8.267969e-06 8.145084e-09)	(-2.346220e-06 -2.632220e-06 3.457838e-10)	(3.553894e-06 -5.635749e-06 7.799300e-09)
0.15          	(6.711651e-07 -8.144717e-06 7.817161e-09)	(-2.738055e-06 -2.686350e-06 3.322294e-10)	(3.409221e-06 -5.458367e-06 7.484931e-09)
0.1575        	(4.627556e-07 -8.079551e-06 7.499860e-09)	(-2.813278e-06 -2.767919e-06 3.179346e-10)	(3.276034e-06 -5.311632e-06 7.181925e-09)
0.165         	(-1.829634e-07 -8.032695e-06 7.311538e-09)	(-3.340371e-06 -2.852796e-06 3.040201e-10)	(3.157407e-06 -5.179899e-06 7.007518e-09)
0.1725        	(-4.937116e-07 -7.996329e-06 7.180337e-09)	(-3.534647e-06 -2.942412e-06 2.918195e-10)	(3.040935e-06 -5.053917e-06 6.888517e-09)
0.18          	(-8.037512e-07 -7.908430e-06 7.070292e-09)	(-3.728851e-06 -2.970703e-06 2.776747e-10)	(2.925099e-06 -4.937727e-06 6.792617e-09)
0.1875        	(-1.166886e-06 -8.030959e-06 6.784215e-09)	(-3.982736e-06 -3.198978e-06 2.636827e-10)	(2.815851e-06 -4.831982e-06 6.520533e-09)
0.195         	(-1.774373e-06 -7.961884e-06 6.431734e-09)	(-4.487443e-06 -3.225472e-06 2.444307e-10)	(2.713071e-06 -4.736412e-06 6.187304e-09)
0.2025        	(-2.047667e-06 -7.992332e-06 6.187684e-09)	(-4.666460e-06 -3.338054e-06 2.546567e-10)	(2.618793e-06 -4.654278e-06 5.933028e-09)
0.21          	(-1.905561e-06 -7.759494e-06 5.995945e-09)	(-4.443008e-06 -3.195794e-06 2.252106e-10)	(2.537447e-06 -4.563699e-06 5.770734e-09)
0.2175        	(-3.131437e-06 -8.161699e-06 5.730005e-09)	(-5.573010e-06 -3.675010e-06 2.182855e-10)	(2.441573e-06 -4.486689e-06 5.511719e-09)
0.225         	(-2.973581e-06 -8.035883e-06 5.467008e-09)	(-5.307221e-06 -3.610528e-06 2.031194e-10)	(2.333640e-06 -4.425355e-06 5.263889e-09)
0.2325        	(-3.367073e-06 -8.132628e-06 5.174067e-09)	(-5.624153e-06 -3.773577e-06 1.857062e-10)	(2.257080e-06 -4.359052e-06 4.988361e-09)
0.24          	(-3.986920e-06 -8.034225e-06 4.856614e-09)	(-6.147294e-06 -3.758643e-06 1.802955e-10)	(2.160374e-06 -4.275581e-06 4.676319e-09)
0.2475        	(-4.009471e-06 -8.160855e-06 4.488452e-09)	(-6.084263e-06 -3.956182e-06 1.566172e-10)	(2.074792e-06 -4.204673e-06 4.331835e-09)
0.255         	(-4.360775e-06 -8.045047e-06 4.184410e-09)	(-6.349732e-06 -3.910982e-06 1.471929e-10)	(1.988956e-06 -4.134065e-06 4.037217e-09)
0.2625        	(-4.614443e-06 -8.263115e-06 3.945650e-09)	(-6.503905e-06 -4.202052e-06 1.370782e-10)	(1.889461e-06 -4.061063e-06 3.808571e-09)
0.27          	(-5.232294e-06 -7.985149e-06 3.612548e-09)	(-7.020158e-06 -3.991892e-06 1.338008e-10)	(1.787864e-06 -3.993256e-06 3.478747e-09)
0.2775        	(-5.504378e-06 -8.177110e-06 3.290483e-09)	(-7.193916e-06 -4.246770e-06 1.278593e-10)	(1.689538e-06 -3.930340e-06 3.162624e-09)
0.285         	(-5.756057e-06 -8.263452e-06 2.999289e-09)	(-7.349948e-06 -4.396320e-06 1.142842e-10)	(1.593891e-06 -3.867132e-06 2.885004e-09)
0.2925        	(-5.936959e-06 -8.190844e-06 2.687840e-09)	(-7.430499e-06 -4.399774e-06 1.051616e-10)	(1.493541e-06 -3.791070e-06 2.582679e-09)
0.3           	(-6.334912e-06 -8.237675e-06 2.383666e-09)	(-7.717882e-06 -4.532463e-06 9.727217e-11)	(1.382969e-06 -3.705213e-06 2.286394e-09)
0.3075        	(-6.523593e-06 -8.187198e-06 2.177439e-09)	(-7.790679e-06 -4.570138e-06 8.975321e-11)	(1.267086e-06 -3.617059e-06 2.087686e-09)
0.315         	(-6.874017e-06 -8.189765e-06 1.903206e-09)	(-8.027911e-06 -4.657788e-06 8.347726e-11)	(1.153894e-06 -3.531976e-06 1.819729e-09)
0.3225        	(-7.147617e-06 -8.122935e-06 1.617545e-09)	(-8.195251e-06 -4.671721e-06 7.534291e-11)	(1.047634e-06 -3.451214e-06 1.542202e-09)
0.33          	(-7.345705e-06 -8.150954e-06 1.368203e-09)	(-8.295477e-06 -4.774047e-06 6.784046e-11)	(9.497718e-07 -3.376907e-06 1.300363e-09)
0.3375        	(-7.695400e-06 -8.022745e-06 1.066942e-09)	(-8.551957e-06 -4.713905e-06 6.277140e-11)	(8.565568e-07 -3.308841e-06 1.004170e-09)
0.345         	(-7.777942e-06 -7.896522e-06 8.136930e-10)	(-8.550143e-06 -4.651172e-06 5.502841e-11)	(7.722008e-07 -3.245350e-06 7.586646e-10)
0.3525        	(-7.947936e-06 -7.970141e-06 6.093814e-10)	(-8.642966e-06 -4.780571e-06 5.113745e-11)	(6.950295e-07 -3.189570e-06 5.582439e-10)
0.36          	(-8.264855e-06 -7.766541e-06 4.431144e-10)	(-8.889550e-06 -4.628457e-06 4.508507e-11)	(6.246953e-07 -3.138084e-06 3.980293e-10)
0.3675        	(-8.401751e-06 -7.771345e-06 2.414715e-10)	(-8.962734e-06 -4.680587e-06 3.877961e-11)	(5.609825e-07 -3.090758e-06 2.026919e-10)
0.375         	(-8.627414e-06 -7.655222e-06 -6.756449e-12)	(-9.126548e-06 -4.608604e-06 3.438650e-11)	(4.991339e-07 -3.046618e-06 -4.114295e-11)
0.3825        	(-8.769758e-06 -7.668869e-06 -2.091429e-10)	(-9.211333e-06 -4.664250e-06 2.883600e-11)	(4.415751e-07 -3.004619e-06 -2.379789e-10)
0.39          	(-8.867668e-06 -7.471280e-06 -3.622557e-10)	(-9.256839e-06 -4.507586e-06 2.392464e-11)	(3.891709e-07 -2.963694e-06 -3.861803e-10)
0.3975        	(-8.965007e-06 -7.325837e-06 -5.151046e-10)	(-9.303872e-06 -4.401204e-06 1.988582e-11)	(3.388649e-07 -2.924633e-06 -5.349904e-10)
0.405         	(-9.277064e-06 -7.502781e-06 -6.555218e-10)	(-9.569684e-06 -4.613437e-06 1.638834e-11)	(2.926195e-07 -2.889344e-06 -6.719102e-10)
0.4125        	(-9.325146e-06 -7.091158e-06 -7.421147e-10)	(-9.583397e-06 -4.236580e-06 1.135607e-11)	(2.582517e-07 -2.854578e-06 -7.534707e-10)
0.42          	(-9.631891e-06 -7.322083e-06 -7.727418e-10)	(-9.864766e-06 -4.499123e-06 7.345312e-12)	(2.328749e-07 -2.822960e-06 -7.800871e-10)
0.4275        	(-9.372173e-06 -6.909799e-06 -8.117969e-10)	(-9.586002e-06 -4.117758e-06 4.335164e-12)	(2.138290e-07 -2.792041e-06 -8.161321e-10)
0.435         	(-9.515946e-06 -6.886338e-06 -8.736558e-10)	(-9.710454e-06 -4.123937e-06 1.368870e-12)	(1.945081e-07 -2.762401e-06 -8.750246e-10)
0.4425        	(-9.299469e-06 -6.929771e-06 -9.688528e-10)	(-9.472310e-06 -4.195094e-06 -1.944675e-12)	(1.728409e-07 -2.734677e-06 -9.669081e-10)
0.45          	(-9.456832e-06 -6.904955e-06 -1.114962e-09)	(-9.602448e-06 -4.197683e-06 -3.735612e-12)	(1.456160e-07 -2.707272e-06 -1.111226e-09)
0.4575        	(-9.394667e-06 -6.844708e-06 -1.288658e-09)	(-9.507691e-06 -4.164686e-06 -3.709577e-12)	(1.130240e-07 -2.680023e-06 -1.284949e-09)
0.465         	(-9.356634e-06 -6.694447e-06 -1.447277e-09)	(-9.435602e-06 -4.042222e-06 -5.003194e-12)	(7.896766e-08 -2.652225e-06 -1.442274e-09)
0.4725        	(-9.297661e-06 -6.673814e-06 -1.561777e-09)	(-9.344628e-06 -4.048900e-06 -6.708748e-12)	(4.696703e-08 -2.624914e-06 -1.555068e-09)
0.48          	(-9.232298e-06 -6.670265e-06 -1.637917e-09)	(-9.248325e-06 -4.071382e-06 -8.665338e-12)	(1.602739e-08 -2.598883e-06 -1.629252e-09)
0.4875        	(-9.062829e-06 -6.449535e-06 -1.691190e-09)	(-9.051572e-06 -3.876855e-06 -9.981995e-12)	(-1.125692e-08 -2.572679e-06 -1.681208e-09)
0.495         	(-9.133297e-06 -6.490206e-06 -1.730446e-09)	(-9.097414e-06 -3.942700e-06 -1.145848e-11)	(-3.588354e-08 -2.547507e-06 -1.718988e-09)
0.5025        	(-9.058978e-06 -6.405460e-06 -1.766087e-09)	(-9.000527e-06 -3.882251e-06 -1.228007e-11)	(-5.845042e-08 -2.523209e-06 -1.753807e-09)
0.51          	(-9.050766e-06 -6.333428e-06 -1.807073e-09)	(-8.971442e-06 -3.834702e-06 -1.322590e-11)	(-7.932451e-08 -2.498726e-06 -1.793847e-09)
0.5175        	(-8.913154e-06 -6.357018e-06 -1.833287e-09)	(-8.814628e-06 -3.882062e-06 -1.370909e-11)	(-9.852598e-08 -2.474956e-06 -1.819578e-09)
0.525         	(-8.792633e-06 -6.223344e-06 -1.845131e-09)	(-8.676044e-06 -3.772607e-06 -1.428962e-11)	(-1.165889e-07 -2.450737e-06 -1.830841e-09)
0.5325        	(-8.690759e-06 -6.161512e-06 -1.871922e-09)	(-8.557435e-06 -3.735058e-06 -1.480953e-11)	(-1.333237e-07 -2.426454e-06 -1.857112e-09)
0.54          	(-8.721521e-06 -6.034450e-06 -1.905601e-09)	(-8.571191e-06 -3.632083e-06 -1.492569e-11)	(-1.503300e-07 -2.402367e-06 -1.890675e-09)
0.5475        	(-8.597790e-06 -5.936271e-06 -1.937370e-09)	(-8.431169e-06 -3.558048e-06 -1.516288e-11)	(-1.666206e-07 -2.378223e-06 -1.922208e-09)
0.555         	(-8.542359e-06 -5.929873e-06 -1.967347e-09)	(-8.360504e-06 -3.575075e-06 -1.504125e-11)	(-1.818545e-07 -2.354798e-06 -1.952306e-09)
0.5625        	(-8.381182e-06 -5.820092e-06 -2.003805e-09)	(-8.184784e-06 -3.488452e-06 -1.482612e-11)	(-1.963986e-07 -2.331640e-06 -1.988979e-09)
0.57          	(-8.347832e-06 -5.800051e-06 -2.047017e-09)	(-8.137701e-06 -3.491581e-06 -1.476253e-11)	(-2.101307e-07 -2.308470e-06 -2.032254e-09)
0.5775        	(-8.140407e-06 -5.719241e-06 -2.079892e-09)	(-7.918128e-06 -3.434192e-06 -1.464719e-11)	(-2.222788e-07 -2.285049e-06 -2.065245e-09)
0.585         	(-8.064111e-06 -5.655915e-06 -2.107733e-09)	(-7.829718e-06 -3.394222e-06 -1.434495e-11)	(-2.343926e-07 -2.261693e-06 -2.093388e-09)
0.5925        	(-7.916202e-06 -5.429996e-06 -2.129264e-09)	(-7.670724e-06 -3.191889e-06 -1.404408e-11)	(-2.454777e-07 -2.238107e-06 -2.115220e-09)
0.6           	(-8.009078e-06 -5.527572e-06 -2.152201e-09)	(-7.752093e-06 -3.312045e-06 -1.378212e-11)	(-2.569846e-07 -2.215527e-06 -2.138419e-09)
0.6075        	(-7.862082e-06 -5.437375e-06 -2.169687e-09)	(-7.594216e-06 -3.243937e-06 -1.328314e-11)	(-2.678659e-07 -2.193438e-06 -2.156404e-09)
0.615         	(-7.761269e-06 -5.265069e-06 -2.187138e-09)	(-7.483440e-06 -3.094575e-06 -1.257252e-11)	(-2.778285e-07 -2.170494e-06 -2.174566e-09)
0.6225        	(-7.565509e-06 -5.189855e-06 -2.194389e-09)	(-7.279377e-06 -3.041789e-06 -1.201597e-11)	(-2.861327e-07 -2.148067e-06 -2.182373e-09)
0.63          	(-7.465685e-06 -5.078979e-06 -2.187961e-09)	(-7.170693e-06 -2.953259e-06 -1.126745e-11)	(-2.949921e-07 -2.125720e-06 -2.176694e-09)
0.6375        	(-7.625201e-06 -5.012434e-06 -2.184312e-09)	(-7.321185e-06 -2.909129e-06 -1.077713e-11)	(-3.040160e-07 -2.103305e-06 -2.173535e-09)
0.645         	(-7.018036e-06 -4.890695e-06 -2.186959e-09)	(-6.707628e-06 -2.809335e-06 -1.039584e-11)	(-3.104081e-07 -2.081359e-06 -2.176563e-09)
0.6525        	(-7.290428e-06 -4.898544e-06 -2.178712e-09)	(-6.973473e-06 -2.838008e-06 -9.542812e-12)	(-3.169547e-07 -2.060536e-06 -2.169169e-09)
0.66          	(-7.153486e-06 -4.821827e-06 -2.172033e-09)	(-6.829282e-06 -2.782336e-06 -8.773916e-12)	(-3.242034e-07 -2.039491e-06 -2.163259e-09)
0.6675        	(-7.136957e-06 -4.803670e-06 -2.166410e-09)	(-6.806138e-06 -2.785360e-06 -7.641349e-12)	(-3.308189e-07 -2.018310e-06 -2.158769e-09)
0.675         	(-6.784645e-06 -4.700462e-06 -2.166475e-09)	(-6.449552e-06 -2.702523e-06 -7.279246e-12)	(-3.350930e-07 -1.997939e-06 -2.159196e-09)
0.6825        	(-6.971079e-06 -4.671577e-06 -2.169854e-09)	(-6.630713e-06 -2.693559e-06 -6.943855e-12)	(-3.403663e-07 -1.978017e-06 -2.162910e-09)
0.69          	(-6.711911e-06 -4.494235e-06 -2.177884e-09)	(-6.367423e-06 -2.537315e-06 -6.358005e-12)	(-3.444872e-07 -1.956920e-06 -2.171526e-09)
0.6975        	(-6.617598e-06 -4.390984e-06 -2.185928e-09)	(-6.269459e-06 -2.454723e-06 -5.843284e-12)	(-3.481387e-07 -1.936261e-06 -2.180085e-09)
0.705         	(-6.559600e-06 -4.381070e-06 -2.189153e-09)	(-6.207676e-06 -2.463932e-06 -4.777164e-12)	(-3.519235e-07 -1.917137e-06 -2.184376e-09)
0.7125        	(-6.522481e-06 -4.312568e-06 -2.188173e-09)	(-6.166854e-06 -2.414864e-06 -3.956031e-12)	(-3.556266e-07 -1.897704e-06 -2.184217e-09)
0.72          	(-6.286991e-06 -4.203340e-06 -2.181030e-09)	(-5.928687e-06 -2.324982e-06 -3.127290e-12)	(-3.583044e-07 -1.878358e-06 -2.177903e-09)
0.7275        	(-6.422659e-06 -4.214641e-06 -2.174348e-09)	(-6.061250e-06 -2.355268e-06 -2.828522e-12)	(-3.614089e-07 -1.859372e-06 -2.171519e-09)
0.735         	(-6.068275e-06 -4.050385e-06 -2.163532e-09)	(-5.704913e-06 -2.210291e-06 -1.972296e-12)	(-3.633624e-07 -1.840094e-06 -2.161559e-09)
0.7425        	(-6.066097e-06 -4.050099e-06 -2.158919e-09)	(-5.701100e-06 -2.228911e-06 -1.383472e-12)	(-3.649970e-07 -1.821188e-06 -2.157536e-09)
0.75          	(-6.010697e-06 -3.989286e-06 -2.146403e-09)	(-5.643881e-06 -2.186438e-06 -8.539234e-13)	(-3.668160e-07 -1.802849e-06 -2.145549e-09)
0.7575        	(-5.863608e-06 -3.960313e-06 -2.126389e-09)	(-5.495107e-06 -2.175317e-06 -4.779646e-13)	(-3.685014e-07 -1.784996e-06 -2.125911e-09)
0.765         	(-5.788923e-06 -3.876337e-06 -2.111722e-09)	(-5.419352e-06 -2.109358e-06 1.392338e-13)	(-3.695702e-07 -1.766979e-06 -2.111862e-09)
0.7725        	(-5.727174e-06 -3.785562e-06 -2.104219e-09)	(-5.356341e-06 -2.036205e-06 6.559036e-13)	(-3.708325e-07 -1.749357e-06 -2.104875e-09)
0.78          	(-5.653713e-06 -3.919289e-06 -2.106316e-09)	(-5.281504e-06 -2.186143e-06 1.181387e-12)	(-3.722098e-07 -1.733146e-06 -2.107498e-09)
0.7875        	(-5.494752e-06 -3.589311e-06 -2.112951e-09)	(-5.121862e-06 -1.872812e-06 1.667302e-12)	(-3.728904e-07 -1.716499e-06 -2.114618e-09)
0.795         	(-5.372088e-06 -3.683093e-06 -2.110457e-09)	(-4.998637e-06 -1.982871e-06 2.275704e-12)	(-3.734510e-07 -1.700222e-06 -2.112733e-09)
0.8025        	(-5.364815e-06 -3.617917e-06 -2.102704e-09)	(-4.990608e-06 -1.933422e-06 3.051014e-12)	(-3.742070e-07 -1.684495e-06 -2.105755e-09)
0.81          	(-5.271102e-06 -3.537001e-06 -2.095033e-09)	(-4.896389e-06 -1.867897e-06 3.257236e-12)	(-3.747131e-07 -1.669105e-06 -2.098291e-09)
0.8175        	(-5.182284e-06 -3.609957e-06 -2.087650e-09)	(-4.807176e-06 -1.955799e-06 3.628136e-12)	(-3.751073e-07 -1.654158e-06 -2.091279e-09)
0.825         	(-4.996235e-06 -3.365803e-06 -2.086008e-09)	(-4.621241e-06 -1.727482e-06 3.874739e-12)	(-3.749948e-07 -1.638321e-06 -2.089882e-09)
0.8325        	(-5.040586e-06 -3.356304e-06 -2.074624e-09)	(-4.664688e-06 -1.733497e-06 4.191063e-12)	(-3.758981e-07 -1.622808e-06 -2.078815e-09)
0.84          	(-4.889143e-06 -3.357177e-06 -2.057705e-09)	(-4.512674e-06 -1.749496e-06 4.518734e-12)	(-3.764699e-07 -1.607681e-06 -2.062223e-09)
0.8475        	(-4.836793e-06 -3.350567e-06 -2.039124e-09)	(-4.460374e-06 -1.757094e-06 5.022181e-12)	(-3.764187e-07 -1.593472e-06 -2.044146e-09)
0.855         	(-4.902104e-06 -3.289788e-06 -2.027579e-09)	(-4.525033e-06 -1.710581e-06 5.221582e-12)	(-3.770711e-07 -1.579207e-06 -2.032801e-09)
0.8625        	(-4.758221e-06 -3.231234e-06 -2.023043e-09)	(-4.381020e-06 -1.666988e-06 5.351018e-12)	(-3.772005e-07 -1.564246e-06 -2.028394e-09)
0.87          	(-4.547550e-06 -3.161304e-06 -2.012269e-09)	(-4.171179e-06 -1.612110e-06 5.437486e-12)	(-3.763710e-07 -1.549194e-06 -2.017706e-09)
0.8775        	(-4.613487e-06 -3.224461e-06 -2.003887e-09)	(-4.237421e-06 -1.689345e-06 5.585093e-12)	(-3.760652e-07 -1.535116e-06 -2.009472e-09)
0.885         	(-4.424591e-06 -3.134930e-06 -1.995071e-09)	(-4.049274e-06 -1.614476e-06 5.828176e-12)	(-3.753174e-07 -1.520453e-06 -2.000899e-09)
0.8925        	(-4.406496e-06 -3.079329e-06 -1.987833e-09)	(-4.031851e-06 -1.573783e-06 6.046256e-12)	(-3.746450e-07 -1.505546e-06 -1.993879e-09)
0.9           	(-4.455923e-06 -3.243451e-06 -1.986617e-09)	(-4.081454e-06 -1.751771e-06 6.278474e-12)	(-3.744686e-07 -1.491680e-06 -1.992896e-09)
0.9075        	(-4.371930e-06 -2.877864e-06 -1.984606e-09)	(-3.997584e-06 -1.401095e-06 6.648323e-12)	(-3.743467e-07 -1.476769e-06 -1.991254e-09)
0.915         	(-4.139426e-06 -2.985049e-06 -1.979109e-09)	(-3.766149e-06 -1.522768e-06 6.980327e-12)	(-3.732770e-07 -1.462281e-06 -1.986090e-09)
0.9225        	(-4.176411e-06 -2.927444e-06 -1.968044e-09)	(-3.803344e-06 -1.478960e-06 7.228659e-12)	(-3.730671e-07 -1.448483e-06 -1.975273e-09)
0.93          	(-4.131578e-06 -2.906871e-06 -1.955898e-09)	(-3.758674e-06 -1.472131e-06 7.479159e-12)	(-3.729040e-07 -1.434740e-06 -1.963377e-09)
0.9375        	(-4.050256e-06 -2.849903e-06 -1.943985e-09)	(-3.677901e-06 -1.428976e-06 7.762187e-12)	(-3.723544e-07 -1.420928e-06 -1.951747e-09)
0.945         	(-4.064905e-06 -2.846330e-06 -1.932793e-09)	(-3.692952e-06 -1.439013e-06 7.999231e-12)	(-3.719530e-07 -1.407316e-06 -1.940792e-09)
0.9525        	(-3.913492e-06 -2.789296e-06 -1.923074e-09)	(-3.542429e-06 -1.395619e-06 8.258420e-12)	(-3.710627e-07 -1.393678e-06 -1.931332e-09)
0.96          	(-4.002145e-06 -2.774379e-06 -1.905446e-09)	(-3.631462e-06 -1.394081e-06 8.446314e-12)	(-3.706828e-07 -1.380297e-06 -1.913892e-09)
0.9675        	(-3.614302e-06 -2.661476e-06 -1.886447e-09)	(-3.245582e-06 -1.294533e-06 8.641369e-12)	(-3.687206e-07 -1.366943e-06 -1.895089e-09)
0.975         	(-3.879257e-06 -2.725454e-06 -1.876843e-09)	(-3.510802e-06 -1.371536e-06 8.749660e-12)	(-3.684551e-07 -1.353918e-06 -1.885593e-09)
0.9825        	(-3.724396e-06 -2.660535e-06 -1.868505e-09)	(-3.356473e-06 -1.319621e-06 8.991635e-12)	(-3.679234e-07 -1.340914e-06 -1.877497e-09)
0.99          	(-3.629445e-06 -2.548954e-06 -1.858473e-09)	(-3.263096e-06 -1.221221e-06 9.114834e-12)	(-3.663498e-07 -1.327733e-06 -1.867588e-09)
0.9975        	(-3.571757e-06 -2.555756e-06 -1.846809e-09)	(-3.206626e-06 -1.240885e-06 9.315491e-12)	(-3.651307e-07 -1.314872e-06 -1.856125e-09)
1.005         	(-3.599182e-06 -2.490043e-06 -1.834146e-09)	(-3.234882e-06 -1.187977e-06 9.498068e-12)	(-3.643000e-07 -1.302066e-06 -1.843644e-09)
1.0125        	(-3.347029e-06 -2.444137e-06 -1.819375e-09)	(-2.984206e-06 -1.154787e-06 9.573409e-12)	(-3.628222e-07 -1.289350e-06 -1.828949e-09)
1.02          	(-3.528825e-06 -2.468481e-06 -1.803728e-09)	(-3.166704e-06 -1.191297e-06 9.660694e-12)	(-3.621210e-07 -1.277184e-06 -1.813389e-09)
1.0275        	(-3.300021e-06 -2.464594e-06 -1.789417e-09)	(-2.939228e-06 -1.199401e-06 9.795987e-12)	(-3.607933e-07 -1.265193e-06 -1.799213e-09)
1.035         	(-3.266335e-06 -2.380528e-06 -1.778462e-09)	(-2.907069e-06 -1.127530e-06 9.889244e-12)	(-3.592659e-07 -1.252999e-06 -1.788351e-09)
1.0425        	(-3.263567e-06 -2.371161e-06 -1.770407e-09)	(-2.905576e-06 -1.130244e-06 9.995412e-12)	(-3.579912e-07 -1.240917e-06 -1.780403e-09)
1.05          	(-3.237351e-06 -2.404846e-06 -1.763856e-09)	(-2.880476e-06 -1.175692e-06 1.014870e-11)	(-3.568755e-07 -1.229154e-06 -1.774005e-09)
1.0575        	(-3.119769e-06 -2.240397e-06 -1.757672e-09)	(-2.764300e-06 -1.023375e-06 1.032973e-11)	(-3.554688e-07 -1.217022e-06 -1.768002e-09)
1.065         	(-3.084916e-06 -2.331718e-06 -1.748707e-09)	(-2.730763e-06 -1.126430e-06 1.041825e-11)	(-3.541536e-07 -1.205289e-06 -1.759125e-09)
1.0725        	(-3.168030e-06 -2.312172e-06 -1.739695e-09)	(-2.814745e-06 -1.118027e-06 1.053630e-11)	(-3.532852e-07 -1.194146e-06 -1.750231e-09)
1.08          	(-2.954232e-06 -2.213738e-06 -1.729178e-09)	(-2.602522e-06 -1.031335e-06 1.063572e-11)	(-3.517095e-07 -1.182403e-06 -1.739813e-09)
1.0875        	(-3.035896e-06 -2.264389e-06 -1.716023e-09)	(-2.685026e-06 -1.093130e-06 1.076524e-11)	(-3.508705e-07 -1.171259e-06 -1.726789e-09)
1.095         	(-2.867496e-06 -2.161032e-06 -1.702716e-09)	(-2.518081e-06 -1.001068e-06 1.091508e-11)	(-3.494146e-07 -1.159964e-06 -1.713631e-09)
1.1025        	(-2.892860e-06 -2.132857e-06 -1.692300e-09)	(-2.544789e-06 -9.842462e-07 1.105372e-11)	(-3.480709e-07 -1.148610e-06 -1.703354e-09)
1.11          	(-2.798571e-06 -2.090067e-06 -1.682134e-09)	(-2.451724e-06 -9.526206e-07 1.123826e-11)	(-3.468468e-07 -1.137447e-06 -1.693372e-09)
1.1175        	(-2.715353e-06 -2.033366e-06 -1.670304e-09)	(-2.369863e-06 -9.070474e-07 1.134897e-11)	(-3.454897e-07 -1.126319e-06 -1.681653e-09)
1.125         	(-2.751916e-06 -2.084224e-06 -1.658545e-09)	(-2.407018e-06 -9.684594e-07 1.148513e-11)	(-3.448974e-07 -1.115765e-06 -1.670031e-09)
1.1325        	(-2.800746e-06 -2.075914e-06 -1.647856e-09)	(-2.456189e-06 -9.707409e-07 1.154105e-11)	(-3.445570e-07 -1.105173e-06 -1.659397e-09)
1.14          	(-2.546869e-06 -1.949304e-06 -1.636435e-09)	(-2.203944e-06 -8.552650e-07 1.170158e-11)	(-3.429249e-07 -1.094039e-06 -1.648136e-09)
1.1475        	(-2.675436e-06 -2.016056e-06 -1.624980e-09)	(-2.333136e-06 -9.327039e-07 1.163551e-11)	(-3.422994e-07 -1.083352e-06 -1.636615e-09)
1.155         	(-2.499063e-06 -1.917117e-06 -1.613711e-09)	(-2.158132e-06 -8.445550e-07 1.165325e-11)	(-3.409313e-07 -1.072562e-06 -1.625365e-09)
1.1625        	(-2.405008e-06 -1.827072e-06 -1.602079e-09)	(-2.065832e-06 -7.653747e-07 1.148747e-11)	(-3.391764e-07 -1.061698e-06 -1.613567e-09)
1.17          	(-2.440455e-06 -1.878292e-06 -1.590119e-09)	(-2.102368e-06 -8.268424e-07 1.160188e-11)	(-3.380871e-07 -1.051450e-06 -1.601721e-09)
1.1775        	(-2.415296e-06 -1.866687e-06 -1.578947e-09)	(-2.078290e-06 -8.251562e-07 1.146174e-11)	(-3.370060e-07 -1.041531e-06 -1.590408e-09)
1.185         	(-2.355041e-06 -1.835334e-06 -1.567854e-09)	(-2.019455e-06 -8.038569e-07 1.152170e-11)	(-3.355856e-07 -1.031478e-06 -1.579376e-09)
1.1925        	(-2.337909e-06 -1.833279e-06 -1.558371e-09)	(-2.003601e-06 -8.115609e-07 1.144680e-11)	(-3.343087e-07 -1.021718e-06 -1.569817e-09)
1.2           	(-2.364545e-06 -1.800546e-06 -1.546244e-09)	(-2.031207e-06 -7.883477e-07 1.135909e-11)	(-3.333379e-07 -1.012198e-06 -1.557603e-09)
1.2075        	(-2.154654e-06 -1.719826e-06 -1.535377e-09)	(-1.823462e-06 -7.175156e-07 1.141348e-11)	(-3.311926e-07 -1.002310e-06 -1.546791e-09)
1.215         	(-2.188130e-06 -1.766029e-06 -1.525491e-09)	(-1.858781e-06 -7.733674e-07 1.134051e-11)	(-3.293497e-07 -9.926611e-07 -1.536832e-09)
1.2225        	(-2.208418e-06 -1.752435e-06 -1.514647e-09)	(-1.880112e-06 -7.692609e-07 1.127808e-11)	(-3.283059e-07 -9.831741e-07 -1.525925e-09)
1.23          	(-2.114073e-06 -1.695757e-06 -1.503025e-09)	(-1.787228e-06 -7.221338e-07 1.122125e-11)	(-3.268453e-07 -9.736227e-07 -1.514246e-09)
1.2375        	(-1.981778e-06 -1.710585e-06 -1.491924e-09)	(-1.656789e-06 -7.464138e-07 1.118900e-11)	(-3.249894e-07 -9.641715e-07 -1.503113e-09)
1.245         	(-1.989433e-06 -1.550854e-06 -1.482561e-09)	(-1.666218e-06 -5.963927e-07 1.123661e-11)	(-3.232154e-07 -9.544609e-07 -1.493798e-09)
1.2525        	(-2.020494e-06 -1.675970e-06 -1.475031e-09)	(-1.698472e-06 -7.306875e-07 1.116069e-11)	(-3.220217e-07 -9.452822e-07 -1.486191e-09)
1.26          	(-1.920965e-06 -1.601663e-06 -1.467361e-09)	(-1.600312e-06 -6.654474e-07 1.108189e-11)	(-3.206532e-07 -9.362161e-07 -1.478443e-09)
1.2675        	(-1.914541e-06 -1.607278e-06 -1.458743e-09)	(-1.595139e-06 -6.801063e-07 1.106418e-11)	(-3.194019e-07 -9.271716e-07 -1.469808e-09)
1.275         	(-1.788655e-06 -1.520319e-06 -1.449490e-09)	(-1.470655e-06 -6.024914e-07 1.108553e-11)	(-3.180002e-07 -9.178275e-07 -1.460576e-09)
1.2825        	(-1.858076e-06 -1.553785e-06 -1.441456e-09)	(-1.540782e-06 -6.448533e-07 1.102990e-11)	(-3.172940e-07 -9.089315e-07 -1.452486e-09)
1.29          	(-1.794934e-06 -1.551075e-06 -1.431188e-09)	(-1.479281e-06 -6.504426e-07 1.097815e-11)	(-3.156526e-07 -9.006319e-07 -1.442166e-09)
1.2975        	(-1.760545e-06 -1.512112e-06 -1.421218e-09)	(-1.446590e-06 -6.202491e-07 1.090122e-11)	(-3.139550e-07 -8.918627e-07 -1.432120e-09)
1.305         	(-1.595117e-06 -1.414285e-06 -1.411173e-09)	(-1.283187e-06 -5.315444e-07 1.084333e-11)	(-3.119304e-07 -8.827411e-07 -1.422017e-09)
1.3125        	(-1.706567e-06 -1.471848e-06 -1.397727e-09)	(-1.395795e-06 -5.977042e-07 1.072859e-11)	(-3.107725e-07 -8.741433e-07 -1.408455e-09)
1.32          	(-1.696455e-06 -1.437867e-06 -1.385889e-09)	(-1.386499e-06 -5.721226e-07 1.063987e-11)	(-3.099556e-07 -8.657447e-07 -1.396529e-09)
1.3275        	(-1.529123e-06 -1.343675e-06 -1.375811e-09)	(-1.221120e-06 -4.868087e-07 1.059127e-11)	(-3.080029e-07 -8.568664e-07 -1.386403e-09)
1.335         	(-1.573332e-06 -1.402733e-06 -1.367476e-09)	(-1.267048e-06 -5.542070e-07 1.044149e-11)	(-3.062848e-07 -8.485259e-07 -1.377917e-09)
1.3425        	(-1.508018e-06 -1.336100e-06 -1.357497e-09)	(-1.203434e-06 -4.959444e-07 1.034725e-11)	(-3.045834e-07 -8.401557e-07 -1.367844e-09)
1.35          	(-1.436898e-06 -1.280067e-06 -1.345881e-09)	(-1.134195e-06 -4.484386e-07 1.027986e-11)	(-3.027031e-07 -8.316286e-07 -1.356160e-09)
1.3575        	(-1.519708e-06 -1.347809e-06 -1.335103e-09)	(-1.218351e-06 -5.241228e-07 1.019705e-11)	(-3.013570e-07 -8.236867e-07 -1.345300e-09)
1.365         	(-1.346132e-06 -1.241986e-06 -1.324749e-09)	(-1.046679e-06 -4.265169e-07 1.006596e-11)	(-2.994522e-07 -8.154686e-07 -1.334815e-09)
1.3725        	(-1.315109e-06 -1.206980e-06 -1.313568e-09)	(-1.017889e-06 -3.996988e-07 9.918477e-12)	(-2.972195e-07 -8.072815e-07 -1.323486e-09)
1.38          	(-1.335908e-06 -1.231266e-06 -1.304405e-09)	(-1.040368e-06 -4.319621e-07 9.871903e-12)	(-2.955396e-07 -7.993039e-07 -1.314277e-09)
1.3875        	(-1.314026e-06 -1.215135e-06 -1.296936e-09)	(-1.020026e-06 -4.234065e-07 9.825759e-12)	(-2.940001e-07 -7.917288e-07 -1.306762e-09)
1.395         	(-1.249783e-06 -1.174653e-06 -1.292215e-09)	(-9.572679e-07 -3.906819e-07 9.761163e-12)	(-2.925155e-07 -7.839715e-07 -1.301976e-09)
1.4025        	(-1.223944e-06 -1.111610e-06 -1.288898e-09)	(-9.330282e-07 -3.355908e-07 9.681507e-12)	(-2.909157e-07 -7.760187e-07 -1.298580e-09)
1.41          	(-1.163978e-06 -1.095937e-06 -1.281526e-09)	(-8.749063e-07 -3.278832e-07 9.505600e-12)	(-2.890712e-07 -7.680539e-07 -1.291032e-09)
1.4175        	(-1.136066e-06 -1.096310e-06 -1.271352e-09)	(-8.485849e-07 -3.357823e-07 9.359975e-12)	(-2.874812e-07 -7.605275e-07 -1.280712e-09)
1.425         	(-1.147534e-06 -1.118744e-06 -1.260853e-09)	(-8.614902e-07 -3.654207e-07 9.057822e-12)	(-2.860436e-07 -7.533231e-07 -1.269911e-09)
1.4325        	(-1.128732e-06 -1.073538e-06 -1.250735e-09)	(-8.441886e-07 -3.276036e-07 8.814879e-12)	(-2.845430e-07 -7.459342e-07 -1.259550e-09)
1.44          	(-1.016561e-06 -1.046843e-06 -1.240760e-09)	(-7.338136e-07 -3.085322e-07 8.705267e-12)	(-2.827476e-07 -7.383104e-07 -1.249465e-09)
1.4475        	(-1.004570e-06 -9.759832e-07 -1.230940e-09)	(-7.236177e-07 -2.457437e-07 8.585399e-12)	(-2.809522e-07 -7.302396e-07 -1.239525e-09)
1.455         	(-1.054020e-06 -1.061441e-06 -1.222193e-09)	(-7.740979e-07 -3.388276e-07 8.302013e-12)	(-2.799224e-07 -7.226134e-07 -1.230495e-09)
1.4625        	(-9.665945e-07 -9.646710e-07 -1.214671e-09)	(-6.885593e-07 -2.500459e-07 8.153066e-12)	(-2.780353e-07 -7.146251e-07 -1.222824e-09)
1.47          	(-9.418192e-07 -9.455729e-07 -1.209353e-09)	(-6.643862e-07 -2.394873e-07 8.048032e-12)	(-2.774330e-07 -7.060856e-07 -1.217401e-09)
1.4775        	(-9.467195e-07 -9.841211e-07 -1.201712e-09)	(-6.692949e-07 -2.863649e-07 7.884647e-12)	(-2.774246e-07 -6.977563e-07 -1.209597e-09)
1.485         	(-8.497916e-07 -8.660716e-07 -1.191897e-09)	(-5.730140e-07 -1.767490e-07 7.435298e-12)	(-2.767776e-07 -6.893226e-07 -1.199332e-09)
1.4925        	(-8.170714e-07 -9.126851e-07 -1.182201e-09)	(-5.409119e-07 -2.317632e-07 7.625913e-12)	(-2.761595e-07 -6.809219e-07 -1.189827e-09)
1.5           	(-7.699538e-07 -8.542845e-07 -1.173069e-09)	(-4.947659e-07 -1.811292e-07 7.228666e-12)	(-2.751880e-07 -6.731553e-07 -1.180298e-09)
1.5075        	(-8.398077e-07 -9.005759e-07 -1.163279e-09)	(-5.645902e-07 -2.353574e-07 7.366481e-12)	(-2.752175e-07 -6.652186e-07 -1.170646e-09)
1.515         	(-7.440077e-07 -8.246593e-07 -1.156240e-09)	(-4.690604e-07 -1.672954e-07 7.015860e-12)	(-2.749473e-07 -6.573639e-07 -1.163256e-09)
1.5225        	(-7.125297e-07 -8.245026e-07 -1.149298e-09)	(-4.385096e-07 -1.747597e-07 6.924222e-12)	(-2.740200e-07 -6.497430e-07 -1.156223e-09)
1.53          	(-6.616353e-07 -7.596199e-07 -1.140714e-09)	(-3.884859e-07 -1.173453e-07 6.761180e-12)	(-2.731494e-07 -6.422746e-07 -1.147476e-09)
1.5375        	(-6.425383e-07 -7.677004e-07 -1.131372e-09)	(-3.703827e-07 -1.326685e-07 6.638183e-12)	(-2.721556e-07 -6.350320e-07 -1.138010e-09)