# Force       
# CofR        : 0.000000e+00 0.000000e+00 0.000000e+00
#
# Time        	total_x total_y total_z	pressure_x pressure_y pressure_z	viscous_x viscous_y viscous_z
0.00625       	-1.791601e-05 -1.854570e-04 6.184110e+01	-2.638132e-05 -2.065220e-04 6.142896e+01	8.465310e-06 2.106501e-05 4.121369e-01
0.0125        	5.978251e-06 -4.363081e-05 -6.360420e+00	-1.253816e-05 -7.595266e-05 -6.536730e+00	1.851641e-05 3.232185e-05 1.763102e-01
0.01875       	-1.963801e-05 -1.997071e-05 -6.190310e+00	-4.826434e-05 -5.614423e-05 -6.303369e+00	2.862633e-05 3.617352e-05 1.130597e-01
0.025         	2.404879e-05 6.773426e-06 -1.752925e-01	-6.356918e-06 -2.908661e-05 -2.405848e-01	3.040571e-05 3.586004e-05 6.529227e-02
0.03125       	-1.217136e-05 -1.803391e-05 6.767835e-01	-4.092035e-05 -5.301351e-05 6.301997e-01	2.874899e-05 3.497960e-05 4.658381e-02
0.0375        	-8.720479e-07 -4.915716e-06 1.134604e-01	-2.756197e-05 -3.868953e-05 7.642481e-02	2.668992e-05 3.377381e-05 3.703555e-02
0.04375       	3.002982e-06 -2.771557e-06 1.322326e-01	-2.031729e-05 -3.394262e-05 1.032516e-01	2.332027e-05 3.117107e-05 2.898104e-02
0.05          	2.738919e-06 -1.147075e-06 1.505600e-01	-1.730285e-05 -2.962959e-05 1.283198e-01	2.004176e-05 2.848251e-05 2.224020e-02
0.05625       	-1.421472e-06 -5.326941e-06 1.436933e-01	-1.948034e-05 -3.200867e-05 1.269252e-01	1.805887e-05 2.668172e-05 1.676809e-02
0.0625        	-1.185022e-07 -5.333145e-06 1.253169e-01	-1.630834e-05 -3.012610e-05 1.130968e-01	1.618984e-05 2.479295e-05 1.222009e-02
0.06875       	2.078224e-06 -3.894291e-06 1.087184e-01	-1.295569e-05 -2.738427e-05 1.003580e-01	1.503392e-05 2.348998e-05 8.360461e-03
0.075         	-8.208106e-07 -6.540729e-06 8.944597e-02	-1.513171e-05 -2.905864e-05 8.435274e-02	1.431090e-05 2.251791e-05 5.093221e-03
0.08125       	-1.366084e-07 -8.765265e-06 7.330980e-02	-1.397273e-05 -3.056991e-05 7.097303e-02	1.383613e-05 2.180465e-05 2.336772e-03
0.0875        	1.012581e-07 -7.296567e-06 5.995717e-02	-1.348684e-05 -2.859735e-05 5.995270e-02	1.358810e-05 2.130078e-05 4.474870e-06
0.09375       	-1.034066e-06 -9.634361e-06 4.667068e-02	-1.444948e-05 -3.035356e-05 4.864016e-02	1.341541e-05 2.071919e-05 -1.969476e-03
0.1           	5.013705e-07 -8.634298e-06 3.511488e-02	-1.276005e-05 -2.870641e-05 3.875589e-02	1.326143e-05 2.007211e-05 -3.641009e-03
0.10625       	-3.522238e-06 -1.302469e-05 2.446318e-02	-1.666063e-05 -3.243461e-05 2.951882e-02	1.313839e-05 1.940992e-05 -5.055645e-03
0.1125        	-9.531837e-07 -1.149317e-05 1.816766e-02	-1.399800e-05 -3.026965e-05 2.442486e-02	1.304482e-05 1.877648e-05 -6.257196e-03
0.11875       	-3.063887e-06 -1.432623e-05 1.078614e-02	-1.603153e-05 -3.248217e-05 1.806385e-02	1.296764e-05 1.815594e-05 -7.277711e-03
0.125         	-3.176239e-06 -1.464828e-05 4.721659e-03	-1.609568e-05 -3.221426e-05 1.286405e-02	1.291944e-05 1.756597e-05 -8.142387e-03
0.13125       	-2.781379e-06 -1.624559e-05 -7.049056e-04	-1.556620e-05 -3.324229e-05 8.168120e-03	1.278482e-05 1.699670e-05 -8.873026e-03
0.1375        	-4.017518e-06 -1.686362e-05 -4.724142e-03	-1.668381e-05 -3.329002e-05 4.763548e-03	1.266629e-05 1.642640e-05 -9.487691e-03
0.14375       	-4.945095e-06 -1.738566e-05 -7.333073e-03	-1.747260e-05 -3.324824e-05 2.664960e-03	1.252750e-05 1.586258e-05 -9.998034e-03
0.15          	-5.449509e-06 -1.949925e-05 -9.850731e-03	-1.776420e-05 -3.480557e-05 5.880547e-04	1.231469e-05 1.530632e-05 -1.043879e-02
0.15625       	-4.549901e-06 -1.982569e-05 -1.257195e-02	-1.654601e-05 -3.463482e-05 -1.758685e-03	1.199610e-05 1.480914e-05 -1.081326e-02
0.1625        	-6.224636e-06 -1.962580e-05 -1.456626e-02	-1.797526e-05 -3.390766e-05 -3.444541e-03	1.175062e-05 1.428186e-05 -1.112172e-02
0.16875       	-5.643006e-06 -1.997609e-05 -1.657948e-02	-1.712991e-05 -3.371349e-05 -5.210268e-03	1.148691e-05 1.373740e-05 -1.136921e-02
0.175         	-6.828143e-06 -2.160899e-05 -1.696810e-02	-1.801021e-05 -3.482488e-05 -5.408380e-03	1.118206e-05 1.321588e-05 -1.155972e-02
0.18125       	-5.867917e-06 -2.065321e-05 -1.752543e-02	-1.666286e-05 -3.336702e-05 -5.822930e-03	1.079494e-05 1.271382e-05 -1.170250e-02
0.1875        	-5.422003e-06 -2.066510e-05 -1.930965e-02	-1.585701e-05 -3.292565e-05 -7.504184e-03	1.043501e-05 1.226055e-05 -1.180546e-02
0.19375       	-6.248217e-06 -1.959937e-05 -1.992158e-02	-1.625862e-05 -3.141189e-05 -8.050770e-03	1.001040e-05 1.181252e-05 -1.187081e-02
0.2           	-6.317578e-06 -2.067180e-05 -2.109639e-02	-1.599403e-05 -3.223968e-05 -9.196663e-03	9.676453e-06 1.156788e-05 -1.189973e-02
0.20625       	-5.844970e-06 -1.923680e-05 -2.195696e-02	-1.516003e-05 -3.038283e-05 -1.006034e-02	9.315061e-06 1.114603e-05 -1.189662e-02
0.2125        	-6.187899e-06 -1.885686e-05 -2.301737e-02	-1.509505e-05 -2.949685e-05 -1.115286e-02	8.907152e-06 1.063999e-05 -1.186451e-02
0.21875       	-5.769239e-06 -1.873914e-05 -2.328156e-02	-1.425378e-05 -2.890618e-05 -1.147421e-02	8.484540e-06 1.016704e-05 -1.180736e-02
0.225         	-6.212425e-06 -1.873617e-05 -2.356491e-02	-1.432746e-05 -2.844597e-05 -1.183681e-02	8.115035e-06 9.709798e-06 -1.172810e-02
0.23125       	-6.651556e-06 -1.842396e-05 -2.431810e-02	-1.444712e-05 -2.772409e-05 -1.268930e-02	7.795559e-06 9.300128e-06 -1.162880e-02
0.2375        	-6.199520e-06 -1.747052e-05 -2.548847e-02	-1.371108e-05 -2.639092e-05 -1.397785e-02	7.511564e-06 8.920405e-06 -1.151062e-02
0.24375       	-6.294506e-06 -1.754865e-05 -2.638064e-02	-1.347326e-05 -2.607209e-05 -1.500650e-02	7.178754e-06 8.523442e-06 -1.137414e-02
0.25          	-6.178750e-06 -1.681757e-05 -2.751256e-02	-1.300431e-05 -2.493825e-05 -1.629015e-02	6.825559e-06 8.120686e-06 -1.122241e-02
0.25625       	-6.390787e-06 -1.658974e-05 -2.886331e-02	-1.287465e-05 -2.431758e-05 -1.780562e-02	6.483860e-06 7.727837e-06 -1.105769e-02
0.2625        	-5.897958e-06 -1.590822e-05 -3.006193e-02	-1.206735e-05 -2.325752e-05 -1.918209e-02	6.169395e-06 7.349298e-06 -1.087984e-02
0.26875       	-5.838923e-06 -1.557235e-05 -3.118179e-02	-1.170357e-05 -2.254765e-05 -2.049158e-02	5.864651e-06 6.975304e-06 -1.069021e-02
0.275         	-5.988791e-06 -1.520047e-05 -3.248086e-02	-1.154923e-05 -2.180609e-05 -2.198946e-02	5.560435e-06 6.605628e-06 -1.049141e-02
0.28125       	-5.639613e-06 -1.461774e-05 -3.382923e-02	-1.091172e-05 -2.086966e-05 -2.354413e-02	5.272103e-06 6.251918e-06 -1.028510e-02
0.2875        	-5.752042e-06 -1.410570e-05 -3.547388e-02	-1.074316e-05 -2.001812e-05 -2.540048e-02	4.991122e-06 5.912425e-06 -1.007340e-02
0.29375       	-5.233370e-06 -1.324629e-05 -3.723110e-02	-9.972463e-06 -1.883974e-05 -2.737431e-02	4.739092e-06 5.593444e-06 -9.856785e-03
0.3           	-5.219973e-06 -1.309451e-05 -3.902127e-02	-9.717617e-06 -1.837198e-05 -2.938784e-02	4.497644e-06 5.277474e-06 -9.633437e-03
0.30625       	-5.556392e-06 -1.295898e-05 -4.112227e-02	-9.806311e-06 -1.791781e-05 -3.171651e-02	4.249919e-06 4.958839e-06 -9.405765e-03
0.3125        	-5.173686e-06 -1.238793e-05 -4.335874e-02	-9.187467e-06 -1.703764e-05 -3.418262e-02	4.013781e-06 4.649710e-06 -9.176124e-03
0.31875       	-4.969638e-06 -1.185088e-05 -4.567692e-02	-8.768261e-06 -1.621254e-05 -3.673189e-02	3.798623e-06 4.361661e-06 -8.945036e-03
0.325         	-4.693346e-06 -1.149342e-05 -4.821329e-02	-8.286535e-06 -1.558311e-05 -3.950061e-02	3.593190e-06 4.089693e-06 -8.712682e-03
0.33125       	-4.654463e-06 -1.138692e-05 -5.073973e-02	-8.052797e-06 -1.521180e-05 -4.226020e-02	3.398334e-06 3.824878e-06 -8.479534e-03
0.3375        	-4.409424e-06 -1.110168e-05 -5.329345e-02	-7.605553e-06 -1.466950e-05 -4.504722e-02	3.196129e-06 3.567825e-06 -8.246235e-03
0.34375       	-4.057118e-06 -1.088124e-05 -5.600695e-02	-7.023278e-06 -1.420260e-05 -4.799269e-02	2.966160e-06 3.321366e-06 -8.014259e-03
0.35          	-3.779559e-06 -1.025174e-05 -5.880525e-02	-6.542805e-06 -1.334593e-05 -5.102069e-02	2.763246e-06 3.094192e-06 -7.784561e-03
0.35625       	-3.845382e-06 -1.003736e-05 -6.172386e-02	-6.419184e-06 -1.291842e-05 -5.416617e-02	2.573802e-06 2.881062e-06 -7.557687e-03
0.3625        	-3.795695e-06 -9.934089e-06 -6.483733e-02	-6.190718e-06 -1.259760e-05 -5.750346e-02	2.395023e-06 2.663515e-06 -7.333869e-03
0.36875       	-3.407451e-06 -9.470614e-06 -6.803893e-02	-5.641407e-06 -1.193099e-05 -6.092513e-02	2.233956e-06 2.460375e-06 -7.113801e-03
0.375         	-3.351637e-06 -9.067315e-06 -7.139598e-02	-5.429654e-06 -1.133337e-05 -6.449807e-02	2.078017e-06 2.266053e-06 -6.897906e-03
0.38125       	-3.188917e-06 -9.063246e-06 -7.499764e-02	-5.110694e-06 -1.113834e-05 -6.831131e-02	1.921777e-06 2.075093e-06 -6.686323e-03
0.3875        	-2.930881e-06 -8.725708e-06 -7.857562e-02	-4.708213e-06 -1.062484e-05 -7.209609e-02	1.777332e-06 1.899136e-06 -6.479529e-03
0.39375       	-2.868955e-06 -8.972989e-06 -8.223909e-02	-4.505668e-06 -1.069567e-05 -7.596102e-02	1.636713e-06 1.722676e-06 -6.278077e-03
0.4           	-2.981096e-06 -8.841444e-06 -8.594102e-02	-4.471205e-06 -1.038817e-05 -7.985929e-02	1.490109e-06 1.546727e-06 -6.081730e-03
0.40625       	-2.790652e-06 -8.555800e-06 -8.970112e-02	-4.147703e-06 -9.951806e-06 -8.381020e-02	1.357050e-06 1.396007e-06 -5.890922e-03
0.4125        	-2.708711e-06 -8.595859e-06 -9.360031e-02	-3.943376e-06 -9.855629e-06 -8.789387e-02	1.234665e-06 1.259770e-06 -5.706440e-03
0.41875       	-2.490550e-06 -8.289308e-06 -9.745931e-02	-3.611275e-06 -9.428160e-06 -9.193117e-02	1.120725e-06 1.138852e-06 -5.528141e-03
0.425         	-2.155757e-06 -8.268850e-06 -1.013551e-01	-3.173565e-06 -9.289649e-06 -9.599868e-02	1.017808e-06 1.020799e-06 -5.356397e-03
0.43125       	-2.199965e-06 -8.402349e-06 -1.053784e-01	-3.112177e-06 -9.311739e-06 -1.001874e-01	9.122114e-07 9.093905e-07 -5.191011e-03
0.4375        	-2.284274e-06 -7.929751e-06 -1.092615e-01	-3.096030e-06 -8.747618e-06 -1.042296e-01	8.117561e-07 8.178668e-07 -5.031914e-03
0.44375       	-2.038930e-06 -8.261422e-06 -1.134290e-01	-2.749370e-06 -8.987940e-06 -1.085495e-01	7.104407e-07 7.265177e-07 -4.879501e-03
0.45          	-1.956764e-06 -7.902744e-06 -1.175635e-01	-2.567258e-06 -8.553450e-06 -1.128295e-01	6.104943e-07 6.507053e-07 -4.733942e-03
0.45625       	-1.952906e-06 -8.051474e-06 -1.216802e-01	-2.467351e-06 -8.629434e-06 -1.170851e-01	5.144450e-07 5.779603e-07 -4.595138e-03
0.4625        	-1.690722e-06 -7.467247e-06 -1.258272e-01	-2.105913e-06 -7.983184e-06 -1.213640e-01	4.151908e-07 5.159370e-07 -4.463224e-03
0.46875       	-1.682906e-06 -7.686498e-06 -1.299494e-01	-1.988918e-06 -8.148213e-06 -1.256116e-01	3.060125e-07 4.617147e-07 -4.337810e-03
0.475         	-1.764794e-06 -7.787138e-06 -1.340982e-01	-1.973576e-06 -8.212722e-06 -1.298794e-01	2.087819e-07 4.255839e-07 -4.218769e-03
0.48125       	-1.161773e-06 -7.527422e-06 -1.383074e-01	-1.279987e-06 -7.906113e-06 -1.342005e-01	1.182139e-07 3.786909e-07 -4.106855e-03
0.4875        	-1.762102e-06 -7.494142e-06 -1.424499e-01	-1.813315e-06 -7.836651e-06 -1.384486e-01	5.121228e-08 3.425099e-07 -4.001329e-03
0.49375       	-1.731837e-06 -7.514186e-06 -1.465993e-01	-1.744710e-06 -7.837556e-06 -1.426974e-01	1.287253e-08 3.233699e-07 -3.901971e-03
0.5           	-2.257099e-06 -8.250773e-06 -1.507029e-01	-2.259631e-06 -8.576861e-06 -1.468944e-01	2.531917e-09 3.260876e-07 -3.808467e-03
0.50625       	-6.780052e-07 -6.282635e-06 -1.547212e-01	-6.469234e-07 -6.570908e-06 -1.510002e-01	-3.108180e-08 2.882737e-07 -3.720961e-03
0.5125        	-1.594273e-06 -6.925517e-06 -1.587790e-01	-1.519460e-06 -7.186951e-06 -1.551403e-01	-7.481357e-08 2.614335e-07 -3.638730e-03
0.51875       	-9.138547e-07 -6.610331e-06 -1.628116e-01	-8.023167e-07 -6.840957e-06 -1.592495e-01	-1.115380e-07 2.306253e-07 -3.562087e-03
0.525         	-1.004606e-06 -6.277845e-06 -1.668444e-01	-8.464150e-07 -6.474166e-06 -1.633534e-01	-1.581906e-07 1.963211e-07 -3.490973e-03
0.53125       	-1.230583e-06 -6.215324e-06 -1.707800e-01	-1.013815e-06 -6.390958e-06 -1.673550e-01	-2.167679e-07 1.756336e-07 -3.424993e-03
0.5375        	-1.074467e-06 -6.150595e-06 -1.746722e-01	-8.079550e-07 -6.311858e-06 -1.713081e-01	-2.665121e-07 1.612637e-07 -3.364030e-03
0.54375       	-9.554811e-07 -5.889810e-06 -1.784866e-01	-6.487488e-07 -6.041883e-06 -1.751790e-01	-3.067322e-07 1.520725e-07 -3.307615e-03
0.55          	-9.041873e-07 -5.655639e-06 -1.822957e-01	-5.581555e-07 -5.803735e-06 -1.790400e-01	-3.460318e-07 1.480963e-07 -3.255697e-03
0.55625       	-9.232224e-07 -5.731815e-06 -1.859721e-01	-5.427989e-07 -5.875464e-06 -1.827646e-01	-3.804234e-07 1.436496e-07 -3.207532e-03
0.5625        	-8.435473e-07 -5.468712e-06 -1.896718e-01	-4.202111e-07 -5.603548e-06 -1.865086e-01	-4.233362e-07 1.348359e-07 -3.163234e-03
0.56875       	-1.018190e-06 -5.860429e-06 -1.932881e-01	-5.677077e-07 -6.017413e-06 -1.901650e-01	-4.504823e-07 1.569834e-07 -3.123030e-03
0.575         	-1.066132e-06 -5.703541e-06 -1.968696e-01	-5.854174e-07 -5.874090e-06 -1.937827e-01	-4.807142e-07 1.705483e-07 -3.086909e-03
0.58125       	-6.619617e-07 -4.424724e-06 -2.003732e-01	-1.336415e-07 -4.601844e-06 -1.973189e-01	-5.283202e-07 1.771198e-07 -3.054295e-03
0.5875        	-7.905079e-07 -5.007152e-06 -2.038127e-01	-2.279504e-07 -5.202281e-06 -2.007879e-01	-5.625574e-07 1.951290e-07 -3.024839e-03
0.59375       	-8.052858e-07 -5.049431e-06 -2.071650e-01	-2.160815e-07 -5.256317e-06 -2.041665e-01	-5.892043e-07 2.068865e-07 -2.998490e-03
0.6           	-5.928836e-07 -4.272670e-06 -2.104528e-01	2.316899e-08 -4.498302e-06 -2.074776e-01	-6.160525e-07 2.256324e-07 -2.975266e-03
0.60625       	-5.295579e-07 -4.464640e-06 -2.136920e-01	1.076560e-07 -4.711536e-06 -2.107369e-01	-6.372139e-07 2.468960e-07 -2.955061e-03
0.6125        	-8.838651e-07 -4.209603e-06 -2.168748e-01	-2.167429e-07 -4.483410e-06 -2.139373e-01	-6.671222e-07 2.738075e-07 -2.937503e-03
0.61875       	-9.874805e-07 -3.995159e-06 -2.199534e-01	-2.863247e-07 -4.296516e-06 -2.170313e-01	-7.011558e-07 3.013578e-07 -2.922088e-03
0.625         	-8.694178e-07 -3.728050e-06 -2.229840e-01	-1.424697e-07 -4.063112e-06 -2.200751e-01	-7.269481e-07 3.350625e-07 -2.908877e-03
0.63125       	-6.332826e-07 -3.745430e-06 -2.259400e-01	1.074928e-07 -4.108028e-06 -2.230421e-01	-7.407754e-07 3.625982e-07 -2.897848e-03
0.6375        	-7.014756e-07 -3.732418e-06 -2.287798e-01	5.049653e-08 -4.116957e-06 -2.258912e-01	-7.519721e-07 3.845389e-07 -2.888614e-03
0.64375       	-7.516182e-07 -3.226064e-06 -2.315847e-01	1.587879e-08 -3.644518e-06 -2.287035e-01	-7.674970e-07 4.184539e-07 -2.881247e-03
0.65          	-7.677833e-07 -3.195825e-06 -2.342895e-01	2.124033e-08 -3.645924e-06 -2.314134e-01	-7.890237e-07 4.500990e-07 -2.876123e-03
0.65625       	-6.345878e-07 -3.053070e-06 -2.368782e-01	1.698716e-07 -3.531399e-06 -2.340059e-01	-8.044594e-07 4.783291e-07 -2.872306e-03
0.6625        	-7.346526e-07 -2.643897e-06 -2.394377e-01	8.856562e-08 -3.161364e-06 -2.365681e-01	-8.232182e-07 5.174678e-07 -2.869593e-03
0.66875       	-6.914637e-07 -2.723280e-06 -2.419698e-01	1.484458e-07 -3.268052e-06 -2.391015e-01	-8.399095e-07 5.447722e-07 -2.868370e-03
0.675         	-7.617558e-07 -2.632027e-06 -2.443422e-01	9.205469e-08 -3.201210e-06 -2.414742e-01	-8.538105e-07 5.691831e-07 -2.867956e-03
0.68125       	-9.960247e-07 -2.410518e-06 -2.466654e-01	-1.421162e-07 -3.032823e-06 -2.437971e-01	-8.539086e-07 6.223052e-07 -2.868257e-03
0.6875        	-1.160950e-06 -2.847108e-06 -2.489259e-01	-3.191273e-07 -3.523361e-06 -2.460564e-01	-8.418230e-07 6.762529e-07 -2.869471e-03
0.69375       	-1.064823e-06 -2.532340e-06 -2.511119e-01	-2.312261e-07 -3.256204e-06 -2.482406e-01	-8.335972e-07 7.238642e-07 -2.871237e-03
0.7           	-9.653377e-07 -1.998511e-06 -2.532271e-01	-1.376954e-07 -2.774043e-06 -2.503536e-01	-8.276424e-07 7.755321e-07 -2.873502e-03
0.70625       	-1.088212e-06 -2.243582e-06 -2.552407e-01	-2.683589e-07 -3.065154e-06 -2.523647e-01	-8.198530e-07 8.215718e-07 -2.875999e-03
0.7125        	-1.269621e-06 -2.106407e-06 -2.571988e-01	-4.532670e-07 -2.964642e-06 -2.543200e-01	-8.163536e-07 8.582348e-07 -2.878750e-03
0.71875       	-1.098154e-06 -1.804906e-06 -2.590863e-01	-2.835740e-07 -2.704696e-06 -2.562045e-01	-8.145802e-07 8.997904e-07 -2.881825e-03
0.725         	-1.639982e-06 -2.496770e-06 -2.608850e-01	-8.436056e-07 -3.441176e-06 -2.579999e-01	-7.963764e-07 9.444061e-07 -2.885096e-03
0.73125       	-1.451594e-06 -2.120032e-06 -2.626352e-01	-6.827265e-07 -3.123189e-06 -2.597468e-01	-7.688675e-07 1.003156e-06 -2.888355e-03
0.7375        	-1.163911e-06 -1.686033e-06 -2.642936e-01	-4.179390e-07 -2.737411e-06 -2.614021e-01	-7.459722e-07 1.051379e-06 -2.891579e-03
0.74375       	-1.271343e-06 -1.261850e-06 -2.658768e-01	-5.405381e-07 -2.352025e-06 -2.629821e-01	-7.308051e-07 1.090175e-06 -2.894745e-03
0.75          	-7.941220e-07 -8.625121e-07 -2.674115e-01	-6.564009e-08 -1.972727e-06 -2.645137e-01	-7.284819e-07 1.110215e-06 -2.897851e-03
0.75625       	-9.180896e-07 -1.150970e-06 -2.688306e-01	-1.930280e-07 -2.272764e-06 -2.659299e-01	-7.250616e-07 1.121794e-06 -2.900691e-03
0.7625        	-1.304059e-06 -8.249707e-07 -2.702619e-01	-5.817032e-07 -1.977488e-06 -2.673583e-01	-7.223562e-07 1.152517e-06 -2.903610e-03
0.76875       	-8.950840e-07 -5.849578e-07 -2.716037e-01	-1.731065e-07 -1.762780e-06 -2.686974e-01	-7.219774e-07 1.177822e-06 -2.906291e-03
0.775         	-1.132380e-06 -1.306591e-06 -2.728535e-01	-4.164228e-07 -2.499346e-06 -2.699450e-01	-7.159568e-07 1.192755e-06 -2.908473e-03
0.78125       	-1.212744e-06 -4.747962e-07 -2.740228e-01	-4.988071e-07 -1.700042e-06 -2.711125e-01	-7.139370e-07 1.225246e-06 -2.910294e-03
0.7875        	-9.254266e-07 -7.707760e-07 -2.751747e-01	-2.188484e-07 -2.020937e-06 -2.722628e-01	-7.065782e-07 1.250161e-06 -2.911978e-03
0.79375       	-1.089637e-06 -5.091768e-07 -2.762621e-01	-3.880285e-07 -1.785537e-06 -2.733489e-01	-7.016086e-07 1.276360e-06 -2.913184e-03
0.8           	-1.143209e-06 -4.287638e-07 -2.772749e-01	-4.444730e-07 -1.739881e-06 -2.743610e-01	-6.987360e-07 1.311117e-06 -2.913902e-03
0.80625       	-1.160105e-06 6.476929e-11 -2.781794e-01	-4.786412e-07 -1.359418e-06 -2.752653e-01	-6.814643e-07 1.359483e-06 -2.914157e-03
0.8125        	-1.107487e-06 -7.364414e-07 -2.790359e-01	-4.390257e-07 -2.119684e-06 -2.761223e-01	-6.684611e-07 1.383242e-06 -2.913582e-03
0.81875       	-1.162854e-06 -3.562305e-07 -2.798533e-01	-4.988518e-07 -1.761688e-06 -2.769409e-01	-6.640022e-07 1.405458e-06 -2.912361e-03
0.825         	-1.235973e-06 -2.083596e-07 -2.806071e-01	-5.781901e-07 -1.642765e-06 -2.776963e-01	-6.577827e-07 1.434406e-06 -2.910734e-03
0.83125       	-1.238067e-06 -3.653181e-07 -2.813038e-01	-5.970332e-07 -1.837468e-06 -2.783954e-01	-6.410333e-07 1.472150e-06 -2.908440e-03
0.8375        	-1.416250e-06 -9.688456e-08 -2.819252e-01	-7.976142e-07 -1.618004e-06 -2.790198e-01	-6.186359e-07 1.521120e-06 -2.905406e-03
0.84375       	-1.325460e-06 -2.543542e-07 -2.825192e-01	-7.335678e-07 -1.816882e-06 -2.796175e-01	-5.918923e-07 1.562528e-06 -2.901723e-03
0.85          	-1.331358e-06 -3.226337e-07 -2.830348e-01	-7.576687e-07 -1.928161e-06 -2.801373e-01	-5.736893e-07 1.605527e-06 -2.897460e-03
0.85625       	-1.337667e-06 -2.708437e-07 -2.834902e-01	-7.715716e-07 -1.913849e-06 -2.805978e-01	-5.660955e-07 1.643006e-06 -2.892406e-03
0.8625        	-1.562710e-06 -4.492467e-07 -2.839008e-01	-1.030542e-06 -2.129404e-06 -2.810142e-01	-5.321680e-07 1.680157e-06 -2.886609e-03
0.86875       	-1.479542e-06 -2.206839e-07 -2.842592e-01	-9.735531e-07 -1.948423e-06 -2.813791e-01	-5.059889e-07 1.727739e-06 -2.880142e-03
0.875         	-1.639134e-06 -2.712875e-07 -2.845666e-01	-1.144464e-06 -2.045991e-06 -2.816937e-01	-4.946693e-07 1.774703e-06 -2.872812e-03
0.88125       	-1.669091e-06 -1.814204e-07 -2.848122e-01	-1.185357e-06 -1.996979e-06 -2.819476e-01	-4.837332e-07 1.815559e-06 -2.864627e-03
0.8875        	-1.756820e-06 -7.024076e-07 -2.850186e-01	-1.289074e-06 -2.550753e-06 -2.821631e-01	-4.677460e-07 1.848345e-06 -2.855484e-03
0.89375       	-1.580971e-06 -2.661137e-07 -2.851640e-01	-1.137408e-06 -2.149908e-06 -2.823187e-01	-4.435627e-07 1.883794e-06 -2.845254e-03
0.9           	-1.624980e-06 -1.946546e-07 -2.852599e-01	-1.196320e-06 -2.125021e-06 -2.824259e-01	-4.286600e-07 1.930367e-06 -2.833926e-03
0.90625       	-1.351933e-06 -5.565586e-08 -2.853107e-01	-9.398683e-07 -2.025454e-06 -2.824893e-01	-4.120648e-07 1.969798e-06 -2.821452e-03
0.9125        	-8.065224e-07 3.907946e-07 -2.853314e-01	-4.135328e-07 -1.613789e-06 -2.825231e-01	-3.929897e-07 2.004584e-06 -2.808369e-03
0.91875       	-1.195165e-06 3.107056e-07 -2.852440e-01	-8.243300e-07 -1.739364e-06 -2.824489e-01	-3.708346e-07 2.050069e-06 -2.795076e-03
0.925         	-1.177784e-06 1.401086e-07 -2.851566e-01	-8.251277e-07 -1.953228e-06 -2.823742e-01	-3.526567e-07 2.093336e-06 -2.782440e-03
0.93125       	-1.025260e-06 5.781912e-07 -2.849992e-01	-6.855455e-07 -1.559478e-06 -2.822287e-01	-3.397145e-07 2.137669e-06 -2.770515e-03
0.9375        	-6.402718e-07 6.758589e-07 -2.848271e-01	-3.219440e-07 -1.503629e-06 -2.820693e-01	-3.183278e-07 2.179488e-06 -2.757796e-03
0.94375       	-1.093398e-06 4.302845e-07 -2.845764e-01	-7.971332e-07 -1.794981e-06 -2.818325e-01	-2.962646e-07 2.225266e-06 -2.743957e-03
0.95          	-1.420770e-06 4.121485e-08 -2.842894e-01	-1.144909e-06 -2.222277e-06 -2.815602e-01	-2.758611e-07 2.263492e-06 -2.729183e-03
0.95625       	-1.253539e-06 2.290772e-07 -2.839733e-01	-9.972775e-07 -2.065650e-06 -2.812599e-01	-2.562611e-07 2.294727e-06 -2.713395e-03
0.9625        	-9.670818e-07 1.307067e-07 -2.835908e-01	-7.259226e-07 -2.197323e-06 -2.808941e-01	-2.411592e-07 2.328030e-06 -2.696680e-03
0.96875       	-1.481681e-06 -7.822404e-08 -2.831475e-01	-1.260658e-06 -2.452009e-06 -2.804684e-01	-2.210227e-07 2.373785e-06 -2.679144e-03
0.975         	-1.438355e-06 -6.157876e-08 -2.827036e-01	-1.236824e-06 -2.478785e-06 -2.800424e-01	-2.015304e-07 2.417206e-06 -2.661136e-03
0.98125       	-1.434036e-06 -4.522401e-08 -2.822013e-01	-1.252595e-06 -2.506547e-06 -2.795586e-01	-1.814409e-07 2.461323e-06 -2.642683e-03
0.9875        	-1.438649e-06 -2.288649e-07 -2.816461e-01	-1.273998e-06 -2.730167e-06 -2.790225e-01	-1.646508e-07 2.501302e-06 -2.623607e-03
0.99375       	-1.217597e-06 -4.239643e-08 -2.810618e-01	-1.064353e-06 -2.571944e-06 -2.784580e-01	-1.532436e-07 2.529547e-06 -2.603829e-03
1             	-7.189561e-07 2.211142e-07 -2.804215e-01	-5.642492e-07 -2.323903e-06 -2.778381e-01	-1.547069e-07 2.545017e-06 -2.583478e-03
1.00625       	-3.556041e-07 9.163394e-07 -2.797423e-01	-1.738995e-07 -1.619815e-06 -2.771798e-01	-1.817046e-07 2.536155e-06 -2.562416e-03
1.0125        	-2.879558e-07 7.991209e-07 -2.790093e-01	-6.429687e-08 -1.709469e-06 -2.764686e-01	-2.236590e-07 2.508589e-06 -2.540730e-03
1.01875       	-4.125699e-07 7.653547e-07 -2.782629e-01	-1.521846e-07 -1.718982e-06 -2.757445e-01	-2.603853e-07 2.484337e-06 -2.518369e-03
1.025         	-6.284045e-07 5.918034e-07 -2.774591e-01	-3.516997e-07 -1.890364e-06 -2.749637e-01	-2.767048e-07 2.482167e-06 -2.495343e-03
1.03125       	-4.481693e-07 4.351126e-07 -2.766145e-01	-1.669853e-07 -2.046099e-06 -2.741428e-01	-2.811840e-07 2.481212e-06 -2.471782e-03
1.0375        	-4.639922e-07 7.208095e-07 -2.757286e-01	-1.773213e-07 -1.765381e-06 -2.732810e-01	-2.866710e-07 2.486191e-06 -2.447571e-03
1.04375       	-3.706773e-07 5.565872e-07 -2.748034e-01	-7.692140e-08 -1.928674e-06 -2.723807e-01	-2.937559e-07 2.485261e-06 -2.422729e-03
1.05          	-4.668052e-07 6.841137e-07 -2.738430e-01	-1.685377e-07 -1.806791e-06 -2.714458e-01	-2.982675e-07 2.490905e-06 -2.397205e-03
1.05625       	-3.302784e-07 4.313376e-07 -2.728464e-01	-4.234849e-08 -2.071881e-06 -2.704753e-01	-2.879300e-07 2.503218e-06 -2.371125e-03
1.0625        	-6.130379e-07 6.339539e-07 -2.717851e-01	-3.300237e-07 -1.887030e-06 -2.694406e-01	-2.830142e-07 2.520984e-06 -2.344479e-03
1.06875       	-3.904359e-07 5.714551e-07 -2.707231e-01	-1.144163e-07 -1.967066e-06 -2.684058e-01	-2.760196e-07 2.538521e-06 -2.317262e-03
1.075         	-4.083143e-07 2.347157e-07 -2.695991e-01	-1.497069e-07 -2.311994e-06 -2.673097e-01	-2.586073e-07 2.546710e-06 -2.289478e-03
1.08125       	-3.764637e-07 3.301796e-07 -2.684357e-01	-1.342977e-07 -2.227213e-06 -2.661746e-01	-2.421660e-07 2.557392e-06 -2.261114e-03
1.0875        	-5.604414e-07 4.857251e-07 -2.672319e-01	-3.288524e-07 -2.088994e-06 -2.649997e-01	-2.315890e-07 2.574719e-06 -2.232173e-03
1.09375       	-4.506253e-07 4.538502e-07 -2.659878e-01	-2.366635e-07 -2.139297e-06 -2.637849e-01	-2.139618e-07 2.593148e-06 -2.202807e-03
1.1           	-5.559518e-07 4.216465e-07 -2.647111e-01	-3.517602e-07 -2.187197e-06 -2.625382e-01	-2.041916e-07 2.608844e-06 -2.172958e-03
1.10625       	-2.196022e-07 3.037071e-07 -2.633980e-01	-3.098191e-08 -2.316128e-06 -2.612552e-01	-1.886203e-07 2.619835e-06 -2.142718e-03
1.1125        	-6.053943e-07 3.994989e-07 -2.620272e-01	-4.305038e-07 -2.234146e-06 -2.599152e-01	-1.748905e-07 2.633645e-06 -2.112006e-03
1.11875       	-2.770490e-07 2.553164e-07 -2.606338e-01	-1.160435e-07 -2.388854e-06 -2.585530e-01	-1.610054e-07 2.644170e-06 -2.080793e-03
1.125         	-4.993772e-07 3.501858e-07 -2.591968e-01	-3.484193e-07 -2.306112e-06 -2.571476e-01	-1.509580e-07 2.656298e-06 -2.049119e-03
1.13125       	-3.120869e-07 2.589374e-07 -2.577306e-01	-1.752457e-07 -2.406522e-06 -2.557135e-01	-1.368412e-07 2.665460e-06 -2.017060e-03
1.1375        	-4.919427e-07 2.168244e-07 -2.562330e-01	-3.716434e-07 -2.453957e-06 -2.542484e-01	-1.202993e-07 2.670781e-06 -1.984629e-03
1.14375       	-3.817655e-07 3.222933e-07 -2.546786e-01	-2.709384e-07 -2.355611e-06 -2.527269e-01	-1.108270e-07 2.677904e-06 -1.951745e-03
1.15          	-3.493362e-07 3.041746e-07 -2.530984e-01	-2.449646e-07 -2.373760e-06 -2.511799e-01	-1.043716e-07 2.677934e-06 -1.918440e-03
1.15625       	-3.071152e-07 2.526119e-07 -2.514640e-01	-2.061926e-07 -2.423941e-06 -2.495792e-01	-1.009226e-07 2.676553e-06 -1.884768e-03
1.1625        	-3.055936e-07 2.183776e-07 -2.497650e-01	-2.104368e-07 -2.455898e-06 -2.479143e-01	-9.515682e-08 2.674275e-06 -1.850683e-03
1.16875       	-3.527346e-07 4.113598e-07 -2.480573e-01	-2.709247e-07 -2.267769e-06 -2.462410e-01	-8.180991e-08 2.679129e-06 -1.816276e-03
1.175         	-8.680834e-08 1.994334e-07 -2.463509e-01	-1.877575e-08 -2.484255e-06 -2.445692e-01	-6.803259e-08 2.683689e-06 -1.781716e-03
1.18125       	-3.854714e-07 3.834778e-07 -2.446004e-01	-3.223780e-07 -2.304507e-06 -2.428534e-01	-6.309338e-08 2.687985e-06 -1.747024e-03
1.1875        	-1.992811e-07 2.662014e-07 -2.427593e-01	-1.444501e-07 -2.423414e-06 -2.410474e-01	-5.483104e-08 2.689615e-06 -1.711889e-03
1.19375       	-2.533545e-07 3.046425e-07 -2.409271e-01	-2.081671e-07 -2.388859e-06 -2.392506e-01	-4.518742e-08 2.693501e-06 -1.676524e-03
1.2           	-2.887055e-07 2.015787e-07 -2.390951e-01	-2.513180e-07 -2.493814e-06 -2.374540e-01	-3.738744e-08 2.695393e-06 -1.641033e-03
1.20625       	-2.259106e-07 3.916153e-07 -2.371773e-01	-1.968559e-07 -2.309629e-06 -2.355720e-01	-2.905476e-08 2.701244e-06 -1.605271e-03
1.2125        	-8.491919e-08 1.766177e-07 -2.352548e-01	-6.783757e-08 -2.525895e-06 -2.336855e-01	-1.708162e-08 2.702513e-06 -1.569244e-03
1.21875       	-2.737749e-07 2.944294e-07 -2.332770e-01	-2.638320e-07 -2.410465e-06 -2.317440e-01	-9.942865e-09 2.704894e-06 -1.533001e-03
1.225         	-6.680155e-08 2.563735e-07 -2.312863e-01	-6.723377e-08 -2.451150e-06 -2.297897e-01	4.322224e-10 2.707524e-06 -1.496629e-03
1.23125       	-3.117734e-07 4.810925e-08 -2.292174e-01	-3.176132e-07 -2.654236e-06 -2.277574e-01	5.839856e-09 2.702345e-06 -1.460042e-03
1.2375        	-1.902881e-07 1.786311e-07 -2.271202e-01	-2.024503e-07 -2.522243e-06 -2.256969e-01	1.216218e-08 2.700874e-06 -1.423259e-03
1.24375       	-1.653985e-07 2.614588e-07 -2.250095e-01	-1.865074e-07 -2.442935e-06 -2.236231e-01	2.110889e-08 2.704393e-06 -1.386350e-03
1.25          	-1.794641e-07 3.294937e-08 -2.228710e-01	-2.089133e-07 -2.667495e-06 -2.215217e-01	2.944921e-08 2.700445e-06 -1.349342e-03
1.25625       	-1.536075e-07 2.164967e-07 -2.206467e-01	-1.917317e-07 -2.483761e-06 -2.193346e-01	3.812415e-08 2.700257e-06 -1.312097e-03
1.2625        	-2.025368e-07 1.664345e-07 -2.184283e-01	-2.471360e-07 -2.535340e-06 -2.171537e-01	4.459923e-08 2.701774e-06 -1.274660e-03
1.26875       	-2.018778e-07 1.950959e-07 -2.161773e-01	-2.562786e-07 -2.507786e-06 -2.149402e-01	5.440073e-08 2.702882e-06 -1.237158e-03
1.275         	1.359195e-07 4.451464e-07 -2.138696e-01	8.635160e-08 -2.243367e-06 -2.126701e-01	4.956794e-08 2.688513e-06 -1.199543e-03
1.28125       	2.662546e-07 2.206445e-07 -2.115393e-01	2.248133e-07 -2.440535e-06 -2.103775e-01	4.144128e-08 2.661179e-06 -1.161811e-03
1.2875        	6.810114e-07 1.499547e-06 -2.092245e-01	6.719373e-07 -1.104974e-06 -2.081003e-01	9.074121e-09 2.604520e-06 -1.124190e-03
1.29375       	4.911197e-07 6.697184e-07 -2.068194e-01	5.129701e-07 -1.889063e-06 -2.057328e-01	-2.185036e-08 2.558781e-06 -1.086510e-03
1.3           	5.171189e-07 9.117051e-07 -2.043808e-01	5.596866e-07 -1.607960e-06 -2.033321e-01	-4.256778e-08 2.519665e-06 -1.048679e-03
1.30625       	5.330686e-07 9.382425e-07 -2.019357e-01	5.836288e-07 -1.543984e-06 -2.009249e-01	-5.056016e-08 2.482226e-06 -1.010826e-03
1.3125        	3.256325e-07 7.769475e-07 -1.994184e-01	3.768112e-07 -1.684697e-06 -1.984455e-01	-5.117874e-08 2.461645e-06 -9.729313e-04
1.31875       	4.931029e-07 9.512499e-07 -1.969196e-01	5.459106e-07 -1.489282e-06 -1.959845e-01	-5.280768e-08 2.440532e-06 -9.350700e-04
1.325         	1.360969e-07 6.635194e-07 -1.943746e-01	1.771225e-07 -1.766982e-06 -1.934774e-01	-4.102554e-08 2.430502e-06 -8.972217e-04
1.33125       	4.435245e-07 7.926101e-07 -1.917708e-01	4.672765e-07 -1.628494e-06 -1.909114e-01	-2.375202e-08 2.421104e-06 -8.593540e-04
1.3375        	2.066194e-07 6.360533e-07 -1.891319e-01	2.195408e-07 -1.769754e-06 -1.883106e-01	-1.292140e-08 2.405807e-06 -8.213641e-04