# Force       
# CofR        : (0.000000e+00 0.000000e+00 0.000000e+00)
#
# Time        	total_x total_y total_z	pressure_x pressure_y pressure_z	viscous_x viscous_y viscous_z
0.0075         -4.326279e-06 -1.045826e-04 5.898198e+01 -1.468102e-06 -1.047813e-04 5.660934e+01 -2.858177e-06 1.986413e-07 2.372640e+00
0.015          4.693804e-05 1.938818e-04 -1.166471e+01 4.252757e-05 2.209418e-04 -1.230461e+01 4.410468e-06 -2.705992e-05 6.399046e-01
0.0225         -8.282270e-05 -2.447232e-04 1.220038e+00 -8.119515e-05 -2.305146e-04 4.625904e-01 -1.627550e-06 -1.420863e-05 7.574479e-01
0.03           -7.015270e-05 -4.671972e-05 2.199852e+00 -6.607315e-05 -3.760766e-05 1.560670e+00 -4.079552e-06 -9.112053e-06 6.391822e-01
0.0375         -7.792577e-06 -3.880168e-05 2.261545e+00 -7.064206e-06 -2.280297e-05 1.674285e+00 -7.283707e-07 -1.599871e-05 5.872599e-01
0.045          4.841560e-06 -1.847497e-05 2.131188e+00 4.361642e-06 6.270960e-07 1.586093e+00 4.799178e-07 -1.910206e-05 5.450951e-01
0.0525         3.268064e-06 -2.650442e-05 2.032981e+00 2.945589e-06 -5.252117e-06 1.521134e+00 3.224748e-07 -2.125230e-05 5.118472e-01
0.06           2.500900e-06 -2.789712e-05 1.939072e+00 2.363618e-06 -5.247804e-06 1.454332e+00 1.372820e-07 -2.264932e-05 4.847396e-01
0.0675         2.314069e-06 -2.936190e-05 1.859122e+00 2.236220e-06 -5.701916e-06 1.396873e+00 7.784895e-08 -2.365998e-05 4.622494e-01
0.075          7.613217e-07 -3.167278e-05 1.790244e+00 7.612873e-07 -7.428530e-06 1.347013e+00 3.432601e-11 -2.424425e-05 4.432309e-01
0.0825         6.851785e-07 -3.207885e-05 1.730631e+00 7.147156e-07 -7.534894e-06 1.303746e+00 -2.953709e-08 -2.454396e-05 4.268848e-01
0.09           6.598014e-07 -3.221076e-05 1.678621e+00 6.841548e-07 -7.507245e-06 1.265971e+00 -2.435340e-08 -2.470352e-05 4.126507e-01
0.0975         6.369743e-07 -3.222512e-05 1.632902e+00 6.530718e-07 -7.454344e-06 1.232783e+00 -1.609745e-08 -2.477078e-05 4.001195e-01
0.105          6.245138e-07 -3.253368e-05 1.592399e+00 6.289101e-07 -7.688082e-06 1.203415e+00 -4.396334e-09 -2.484560e-05 3.889837e-01
0.1125         6.119324e-07 -3.266208e-05 1.556246e+00 6.031101e-07 -7.750883e-06 1.177239e+00 8.822357e-09 -2.491119e-05 3.790067e-01
0.12           6.120786e-07 -3.268479e-05 1.523736e+00 5.879467e-07 -7.743182e-06 1.153731e+00 2.413194e-08 -2.494161e-05 3.700055e-01
0.1275         6.057800e-07 -3.324439e-05 1.494369e+00 5.670784e-07 -8.208800e-06 1.132533e+00 3.870155e-08 -2.503559e-05 3.618360e-01
0.135          6.119216e-07 -3.263195e-05 1.467707e+00 5.568244e-07 -7.632105e-06 1.113330e+00 5.509717e-08 -2.499984e-05 3.543771e-01
0.1425         6.128942e-07 -3.294881e-05 1.443380e+00 5.414176e-07 -7.944294e-06 1.095845e+00 7.147662e-08 -2.500452e-05 3.475353e-01
0.15           6.227321e-07 -3.300911e-05 1.421068e+00 5.342618e-07 -7.974193e-06 1.079835e+00 8.847031e-08 -2.503492e-05 3.412328e-01
0.1575         6.167342e-07 -3.325192e-05 1.400529e+00 5.133154e-07 -8.181180e-06 1.065125e+00 1.034188e-07 -2.507074e-05 3.354035e-01
0.165          6.326562e-07 -3.329652e-05 1.381553e+00 5.137274e-07 -8.195383e-06 1.051562e+00 1.189289e-07 -2.510113e-05 3.299914e-01
0.1725         6.442411e-07 -3.343886e-05 1.363951e+00 5.083017e-07 -8.304666e-06 1.038999e+00 1.359394e-07 -2.513419e-05 3.249524e-01
0.18           6.462354e-07 -3.348278e-05 1.347599e+00 4.951832e-07 -8.328526e-06 1.027354e+00 1.510522e-07 -2.515425e-05 3.202455e-01
0.1875         6.470825e-07 -3.353958e-05 1.332356e+00 4.830169e-07 -8.375080e-06 1.016519e+00 1.640656e-07 -2.516450e-05 3.158366e-01
0.195          6.675480e-07 -3.363227e-05 1.318097e+00 4.877379e-07 -8.451405e-06 1.006401e+00 1.798101e-07 -2.518087e-05 3.116968e-01
0.2025         6.595394e-07 -3.365017e-05 1.304730e+00 4.671683e-07 -8.464052e-06 9.969288e-01 1.923711e-07 -2.518611e-05 3.078009e-01
0.21           6.833227e-07 -3.382791e-05 1.292178e+00 4.755440e-07 -8.618070e-06 9.880508e-01 2.077786e-07 -2.520984e-05 3.041270e-01
0.2175         6.734136e-07 -3.378400e-05 1.280340e+00 4.543753e-07 -8.567727e-06 9.796868e-01 2.190382e-07 -2.521627e-05 3.006532e-01
0.225          6.800175e-07 -3.384021e-05 1.269203e+00 4.502933e-07 -8.625495e-06 9.718378e-01 2.297242e-07 -2.521471e-05 2.973650e-01
0.2325         6.879376e-07 -3.393100e-05 1.258662e+00 4.464474e-07 -8.706677e-06 9.644156e-01 2.414902e-07 -2.522432e-05 2.942468e-01
0.24           7.061940e-07 -3.388942e-05 1.248683e+00 4.510549e-07 -8.671737e-06 9.573986e-01 2.551390e-07 -2.521768e-05 2.912844e-01
0.2475         6.996926e-07 -3.396664e-05 1.239221e+00 4.339848e-07 -8.750758e-06 9.507549e-01 2.657078e-07 -2.521588e-05 2.884663e-01
0.255          7.039715e-07 -3.397500e-05 1.230232e+00 4.288932e-07 -8.761997e-06 9.444512e-01 2.750783e-07 -2.521300e-05 2.857811e-01
0.2625         7.099493e-07 -3.396482e-05 1.221684e+00 4.249922e-07 -8.764558e-06 9.384648e-01 2.849572e-07 -2.520026e-05 2.832194e-01
0.27           7.148972e-07 -3.397750e-05 1.213535e+00 4.203329e-07 -8.789934e-06 9.327624e-01 2.945643e-07 -2.518757e-05 2.807723e-01
0.2775         7.186583e-07 -3.400921e-05 1.205765e+00 4.148431e-07 -8.830080e-06 9.273336e-01 3.038152e-07 -2.517913e-05 2.784316e-01
0.285          7.308262e-07 -3.408896e-05 1.198339e+00 4.164785e-07 -8.906397e-06 9.221484e-01 3.143477e-07 -2.518256e-05 2.761903e-01
0.2925         7.244919e-07 -3.393138e-05 1.191239e+00 4.023881e-07 -8.779823e-06 9.171970e-01 3.221038e-07 -2.515156e-05 2.740422e-01
0.3            7.334248e-07 -3.399607e-05 1.184434e+00 4.031086e-07 -8.866342e-06 9.124524e-01 3.303162e-07 -2.512973e-05 2.719814e-01
0.3075         7.318988e-07 -3.391881e-05 1.177937e+00 3.939407e-07 -8.814898e-06 9.079362e-01 3.379581e-07 -2.510391e-05 2.700012e-01
0.315          7.398833e-07 -3.395649e-05 1.171690e+00 3.939115e-07 -8.870881e-06 9.035922e-01 3.459717e-07 -2.508561e-05 2.680973e-01
0.3225         7.428702e-07 -3.388262e-05 1.165681e+00 3.890881e-07 -8.824814e-06 8.994152e-01 3.537821e-07 -2.505781e-05 2.662657e-01
0.33           7.472179e-07 -3.385289e-05 1.159910e+00 3.859493e-07 -8.822469e-06 8.954084e-01 3.612686e-07 -2.503042e-05 2.645019e-01
0.3375         7.403492e-07 -3.388747e-05 1.154363e+00 3.736833e-07 -8.879673e-06 8.915615e-01 3.666659e-07 -2.500779e-05 2.628013e-01
0.345          7.554618e-07 -3.396588e-05 1.149014e+00 3.809750e-07 -8.976301e-06 8.878548e-01 3.744867e-07 -2.498958e-05 2.611593e-01
0.3525         7.493851e-07 -3.364959e-05 1.143848e+00 3.687080e-07 -8.719435e-06 8.842734e-01 3.806771e-07 -2.493015e-05 2.595745e-01
0.36           7.602137e-07 -3.370244e-05 1.138878e+00 3.721874e-07 -8.808344e-06 8.808338e-01 3.880263e-07 -2.489410e-05 2.580437e-01
0.3675         7.509922e-07 -3.363018e-05 1.134071e+00 3.583988e-07 -8.771199e-06 8.775073e-01 3.925934e-07 -2.485898e-05 2.565634e-01
0.375          7.583150e-07 -3.359715e-05 1.129432e+00 3.602786e-07 -8.777205e-06 8.743003e-01 3.980364e-07 -2.481995e-05 2.551314e-01
0.3825         7.617745e-07 -3.362709e-05 1.124937e+00 3.575660e-07 -8.828882e-06 8.711915e-01 4.042085e-07 -2.479821e-05 2.537454e-01
0.39           7.609751e-07 -3.343403e-05 1.120590e+00 3.517360e-07 -8.688157e-06 8.681868e-01 4.092391e-07 -2.474588e-05 2.524029e-01
0.3975         7.628930e-07 -3.341010e-05 1.116377e+00 3.487650e-07 -8.713712e-06 8.652752e-01 4.141280e-07 -2.469639e-05 2.511019e-01
0.405          7.626781e-07 -3.335720e-05 1.112299e+00 3.439979e-07 -8.700880e-06 8.624587e-01 4.186802e-07 -2.465632e-05 2.498404e-01
0.4125         7.666068e-07 -3.331924e-05 1.108339e+00 3.430807e-07 -8.702788e-06 8.597218e-01 4.235262e-07 -2.461645e-05 2.486169e-01
0.42           7.646934e-07 -3.311056e-05 1.104500e+00 3.371248e-07 -8.560724e-06 8.570709e-01 4.275686e-07 -2.454983e-05 2.474289e-01
0.4275         7.729565e-07 -3.319489e-05 1.100769e+00 3.396038e-07 -8.680797e-06 8.544938e-01 4.333526e-07 -2.451410e-05 2.462754e-01
0.435          7.658936e-07 -3.303483e-05 1.097156e+00 3.290611e-07 -8.568517e-06 8.520015e-01 4.368325e-07 -2.446632e-05 2.451541e-01
0.4425         7.721557e-07 -3.299713e-05 1.093640e+00 3.310818e-07 -8.581862e-06 8.495763e-01 4.410740e-07 -2.441527e-05 2.440640e-01
0.45           7.689809e-07 -3.285227e-05 1.090211e+00 3.241935e-07 -8.496031e-06 8.472063e-01 4.447874e-07 -2.435624e-05 2.430043e-01
0.4575         7.693348e-07 -3.280275e-05 1.086887e+00 3.215141e-07 -8.501852e-06 8.449132e-01 4.478207e-07 -2.430090e-05 2.419733e-01
0.465          7.683574e-07 -3.269905e-05 1.083638e+00 3.175476e-07 -8.453674e-06 8.426685e-01 4.508098e-07 -2.424537e-05 2.409697e-01
0.4725         7.744440e-07 -3.269900e-05 1.080479e+00 3.194229e-07 -8.496423e-06 8.404861e-01 4.550211e-07 -2.420258e-05 2.399926e-01
0.48           7.684785e-07 -3.249632e-05 1.077409e+00 3.107606e-07 -8.358736e-06 8.383680e-01 4.577179e-07 -2.413759e-05 2.390405e-01
0.4875         7.718238e-07 -3.242905e-05 1.074403e+00 3.111312e-07 -8.357332e-06 8.362902e-01 4.606927e-07 -2.407172e-05 2.381128e-01
0.495          7.714188e-07 -3.230937e-05 1.071476e+00 3.076854e-07 -8.301497e-06 8.342678e-01 4.637333e-07 -2.400787e-05 2.372085e-01
0.5025         7.688646e-07 -3.224673e-05 1.068619e+00 3.029712e-07 -8.297452e-06 8.322927e-01 4.658935e-07 -2.394928e-05 2.363267e-01
0.51           7.761975e-07 -3.218521e-05 1.065827e+00 3.065237e-07 -8.288241e-06 8.303601e-01 4.696737e-07 -2.389697e-05 2.354665e-01
0.5175         7.701924e-07 -3.203129e-05 1.063116e+00 2.982045e-07 -8.200984e-06 8.284889e-01 4.719878e-07 -2.383031e-05 2.346270e-01
0.525          7.723366e-07 -3.192242e-05 1.060452e+00 2.980618e-07 -8.161673e-06 8.266447e-01 4.742748e-07 -2.376075e-05 2.338076e-01
0.5325         7.686937e-07 -3.186480e-05 1.057850e+00 2.925920e-07 -8.163228e-06 8.248426e-01 4.761017e-07 -2.370157e-05 2.330074e-01
0.54           7.824985e-07 -3.187200e-05 1.055241e+00 3.019836e-07 -8.319499e-06 8.230212e-01 4.805149e-07 -2.355250e-05 2.322198e-01
0.5475         7.702242e-07 -3.157376e-05 1.052744e+00 2.874230e-07 -8.213275e-06 8.212930e-01 4.828012e-07 -2.336049e-05 2.314513e-01
0.555          7.827708e-07 -3.143627e-05 1.050239e+00 2.936395e-07 -8.249477e-06 8.195426e-01 4.891313e-07 -2.318680e-05 2.306968e-01
0.5625         7.861275e-07 -3.134802e-05 1.047844e+00 2.910727e-07 -8.295801e-06 8.178836e-01 4.950548e-07 -2.305222e-05 2.299609e-01
0.57           7.799690e-07 -3.113066e-05 1.045513e+00 2.828642e-07 -8.208598e-06 8.162690e-01 4.971047e-07 -2.292206e-05 2.292443e-01
0.5775         7.874395e-07 -3.094638e-05 1.043234e+00 2.876161e-07 -8.155543e-06 8.146897e-01 4.998234e-07 -2.279084e-05 2.285442e-01
0.585          7.900951e-07 -3.085246e-05 1.040989e+00 2.871494e-07 -8.171446e-06 8.131297e-01 5.029458e-07 -2.268102e-05 2.278598e-01
0.5925         7.893767e-07 -3.069675e-05 1.038804e+00 2.843677e-07 -8.122136e-06 8.116132e-01 5.050089e-07 -2.257461e-05 2.271904e-01
0.6            7.871092e-07 -3.056333e-05 1.036658e+00 2.809477e-07 -8.094218e-06 8.101224e-01 5.061615e-07 -2.246912e-05 2.265354e-01
0.6075         7.867460e-07 -3.042042e-05 1.034558e+00 2.796516e-07 -8.052138e-06 8.086637e-01 5.070944e-07 -2.236828e-05 2.258942e-01
0.615          7.931482e-07 -3.030153e-05 1.032493e+00 2.838016e-07 -8.028429e-06 8.072265e-01 5.093466e-07 -2.227310e-05 2.252664e-01
0.6225         7.867657e-07 -3.022395e-05 1.030477e+00 2.766904e-07 -8.033834e-06 8.058260e-01 5.100753e-07 -2.219011e-05 2.246514e-01
0.63           7.923034e-07 -3.006542e-05 1.028489e+00 2.807673e-07 -7.964789e-06 8.044402e-01 5.115361e-07 -2.210063e-05 2.240487e-01
0.6375         7.880296e-07 -2.994587e-05 1.026543e+00 2.757784e-07 -7.935935e-06 8.030846e-01 5.122512e-07 -2.200993e-05 2.234579e-01
0.645          7.912745e-07 -2.982270e-05 1.024634e+00 2.777875e-07 -7.898321e-06 8.017552e-01 5.134870e-07 -2.192438e-05 2.228787e-01
0.6525         7.861762e-07 -2.970095e-05 1.022757e+00 2.725933e-07 -7.862250e-06 8.004464e-01 5.135830e-07 -2.183870e-05 2.223106e-01
0.66           7.911820e-07 -2.962517e-05 1.020909e+00 2.766037e-07 -7.862109e-06 7.991559e-01 5.145783e-07 -2.176306e-05 2.217534e-01
0.6675         7.880409e-07 -2.947088e-05 1.019098e+00 2.727499e-07 -7.790124e-06 7.978913e-01 5.152910e-07 -2.168076e-05 2.212069e-01
0.675          7.849030e-07 -2.939267e-05 1.017318e+00 2.697909e-07 -7.789545e-06 7.966469e-01 5.151122e-07 -2.160313e-05 2.206708e-01
0.6825         7.904233e-07 -2.927568e-05 1.015569e+00 2.741289e-07 -7.746670e-06 7.954243e-01 5.162944e-07 -2.152901e-05 2.201445e-01
0.69           7.858470e-07 -2.913956e-05 1.013849e+00 2.692138e-07 -7.690720e-06 7.942207e-01 5.166332e-07 -2.144884e-05 2.196279e-01
0.6975         7.860519e-07 -2.907009e-05 1.012155e+00 2.693285e-07 -7.693458e-06 7.930338e-01 5.167234e-07 -2.137663e-05 2.191208e-01
0.705          7.831830e-07 -2.894490e-05 1.010489e+00 2.666415e-07 -7.641404e-06 7.918663e-01 5.165415e-07 -2.130350e-05 2.186229e-01
0.7125         7.835736e-07 -2.880013e-05 1.008857e+00 2.669171e-07 -7.577507e-06 7.907229e-01 5.166564e-07 -2.122262e-05 2.181339e-01
0.72           7.796969e-07 -2.872786e-05 1.007243e+00 2.633777e-07 -7.577811e-06 7.895898e-01 5.163192e-07 -2.115005e-05 2.176536e-01
0.7275         7.835170e-07 -2.856656e-05 1.005665e+00 2.669050e-07 -7.495954e-06 7.884832e-01 5.166120e-07 -2.107061e-05 2.171817e-01
0.735          7.799848e-07 -2.851981e-05 1.004100e+00 2.633060e-07 -7.517009e-06 7.873823e-01 5.166787e-07 -2.100280e-05 2.167178e-01
0.7425         7.785816e-07 -2.837626e-05 1.002559e+00 2.622285e-07 -7.446406e-06 7.862970e-01 5.163531e-07 -2.092985e-05 2.162620e-01
0.75           7.787398e-07 -2.825952e-05 1.001053e+00 2.623107e-07 -7.406085e-06 7.852388e-01 5.164291e-07 -2.085343e-05 2.158140e-01
0.7575         9.929129e-07 -2.749520e-05 9.921434e-01 4.820918e-07 -7.265063e-06 7.765210e-01 5.108212e-07 -2.023014e-05 2.156224e-01
0.765          9.007747e-07 -2.695590e-05 9.922788e-01 4.020418e-07 -7.300447e-06 7.768044e-01 4.987328e-07 -1.965545e-05 2.154744e-01
0.7725         9.050581e-07 -2.648449e-05 9.915266e-01 4.153632e-07 -7.210932e-06 7.762532e-01 4.896949e-07 -1.927356e-05 2.152734e-01
0.78           8.877983e-07 -2.612305e-05 9.907954e-01 4.059829e-07 -7.177536e-06 7.757365e-01 4.818154e-07 -1.894551e-05 2.150589e-01
0.7875         8.777491e-07 -2.575942e-05 9.900310e-01 4.035262e-07 -7.108039e-06 7.751960e-01 4.742230e-07 -1.865138e-05 2.148350e-01
0.795          8.702823e-07 -2.540009e-05 9.892409e-01 4.023318e-07 -7.027031e-06 7.746364e-01 4.679504e-07 -1.837306e-05 2.146045e-01
0.8025         8.531609e-07 -2.512822e-05 9.884407e-01 3.926461e-07 -7.008044e-06 7.740712e-01 4.605148e-07 -1.812017e-05 2.143695e-01
0.81           8.466821e-07 -2.478430e-05 9.876343e-01 3.928434e-07 -6.907994e-06 7.735029e-01 4.538388e-07 -1.787631e-05 2.141314e-01
0.8175         8.389283e-07 -2.454622e-05 9.868225e-01 3.905355e-07 -6.895559e-06 7.729312e-01 4.483928e-07 -1.765066e-05 2.138913e-01
0.825          8.277002e-07 -2.420131e-05 9.860081e-01 3.852596e-07 -6.775899e-06 7.723584e-01 4.424406e-07 -1.742541e-05 2.136497e-01
0.8325         8.206658e-07 -2.394474e-05 9.851903e-01 3.837758e-07 -6.735104e-06 7.717831e-01 4.368900e-07 -1.720964e-05 2.134073e-01
0.84           8.108310e-07 -2.369092e-05 9.843761e-01 3.793739e-07 -6.684201e-06 7.712116e-01 4.314572e-07 -1.700672e-05 2.131645e-01
0.8475         7.998856e-07 -2.337617e-05 9.835580e-01 3.743367e-07 -6.576291e-06 7.706364e-01 4.255489e-07 -1.679988e-05 2.129216e-01
0.855          7.902771e-07 -2.311430e-05 9.827437e-01 3.706372e-07 -6.517059e-06 7.700648e-01 4.196399e-07 -1.659724e-05 2.126789e-01
0.8625         7.855439e-07 -2.287421e-05 9.819338e-01 3.706814e-07 -6.467396e-06 7.694970e-01 4.148624e-07 -1.640681e-05 2.124368e-01
0.87           7.752664e-07 -2.264446e-05 9.811230e-01 3.653829e-07 -6.419710e-06 7.689278e-01 4.098835e-07 -1.622475e-05 2.121952e-01
0.8775         7.652715e-07 -2.234871e-05 9.803162e-01 3.607984e-07 -6.310734e-06 7.683617e-01 4.044732e-07 -1.603798e-05 2.119545e-01
0.885          7.592161e-07 -2.213503e-05 9.795119e-01 3.595649e-07 -6.275622e-06 7.677973e-01 3.996511e-07 -1.585941e-05 2.117147e-01
0.8925         7.521623e-07 -2.189719e-05 9.787126e-01 3.568576e-07 -6.209680e-06 7.672367e-01 3.953046e-07 -1.568751e-05 2.114759e-01
0.9            7.427854e-07 -2.167570e-05 9.779151e-01 3.522359e-07 -6.155405e-06 7.666769e-01 3.905495e-07 -1.552029e-05 2.112381e-01
0.9075         7.376090e-07 -2.143799e-05 9.771270e-01 3.513491e-07 -6.083409e-06 7.661253e-01 3.862599e-07 -1.535458e-05 2.110017e-01
0.915          7.247219e-07 -2.120568e-05 9.763359e-01 3.435848e-07 -6.015908e-06 7.655695e-01 3.811371e-07 -1.518978e-05 2.107664e-01
0.9225         7.205940e-07 -2.098897e-05 9.755545e-01 3.439400e-07 -5.959861e-06 7.650219e-01 3.766540e-07 -1.502911e-05 2.105326e-01
0.93           7.108424e-07 -2.078917e-05 9.747732e-01 3.387396e-07 -5.913376e-06 7.644731e-01 3.721028e-07 -1.487579e-05 2.103002e-01
0.9375         7.036558e-07 -2.054143e-05 9.739996e-01 3.361210e-07 -5.823262e-06 7.639304e-01 3.675348e-07 -1.471816e-05 2.100692e-01
0.945          6.966519e-07 -2.036593e-05 9.732293e-01 3.333536e-07 -5.795898e-06 7.633895e-01 3.632983e-07 -1.457003e-05 2.098397e-01
0.9525         6.905811e-07 -2.013260e-05 9.724623e-01 3.313002e-07 -5.711405e-06 7.628506e-01 3.592809e-07 -1.442120e-05 2.096117e-01
0.96           6.842467e-07 -1.996676e-05 9.717022e-01 3.287713e-07 -5.686742e-06 7.623169e-01 3.554754e-07 -1.428001e-05 2.093853e-01
0.9675         6.765189e-07 -1.977926e-05 9.709465e-01 3.250231e-07 -5.634899e-06 7.617862e-01 3.514958e-07 -1.414436e-05 2.091604e-01
0.975          6.708580e-07 -1.957363e-05 9.701943e-01 3.233250e-07 -5.570580e-06 7.612573e-01 3.475329e-07 -1.400305e-05 2.089370e-01
0.9825         6.631305e-07 -1.936967e-05 9.694464e-01 3.195174e-07 -5.506019e-06 7.607311e-01 3.436131e-07 -1.386365e-05 2.087153e-01
0.99           6.558924e-07 -1.918240e-05 9.687038e-01 3.164625e-07 -5.456505e-06 7.602086e-01 3.394299e-07 -1.372589e-05 2.084952e-01
0.9975         6.509853e-07 -1.899201e-05 9.679689e-01 3.152747e-07 -5.402324e-06 7.596923e-01 3.357106e-07 -1.358969e-05 2.082767e-01
1.005          6.432201e-07 -1.880139e-05 9.672353e-01 3.114166e-07 -5.346411e-06 7.591755e-01 3.318035e-07 -1.345498e-05 2.080598e-01
1.0125         6.371939e-07 -1.862425e-05 9.665073e-01 3.091459e-07 -5.298226e-06 7.586628e-01 3.280480e-07 -1.332602e-05 2.078445e-01
1.02           6.331408e-07 -1.844789e-05 9.657853e-01 3.082601e-07 -5.248440e-06 7.581544e-01 3.248808e-07 -1.319945e-05 2.076308e-01
1.0275         6.251326e-07 -1.823665e-05 9.650691e-01 3.037938e-07 -5.168171e-06 7.576503e-01 3.213387e-07 -1.306847e-05 2.074188e-01
1.035          6.197908e-07 -1.809189e-05 9.643549e-01 3.019642e-07 -5.146111e-06 7.571465e-01 3.178266e-07 -1.294578e-05 2.072084e-01
1.0425         6.153965e-07 -1.794990e-05 9.636461e-01 3.006346e-07 -5.117984e-06 7.566465e-01 3.147619e-07 -1.283192e-05 2.069996e-01
1.05           6.061335e-07 -1.774347e-05 9.629424e-01 2.951694e-07 -5.032969e-06 7.561500e-01 3.109641e-07 -1.271050e-05 2.067924e-01
1.0575         6.037417e-07 -1.757773e-05 9.622447e-01 2.958563e-07 -4.988481e-06 7.556579e-01 3.078854e-07 -1.258924e-05 2.065868e-01
1.065          5.953783e-07 -1.742178e-05 9.615511e-01 2.908335e-07 -4.947892e-06 7.551682e-01 3.045448e-07 -1.247389e-05 2.063829e-01
1.0725         5.913198e-07 -1.723791e-05 9.608612e-01 2.900220e-07 -4.881885e-06 7.546807e-01 3.012979e-07 -1.235602e-05 2.061805e-01
1.08           5.857457e-07 -1.708038e-05 9.601766e-01 2.874835e-07 -4.840095e-06 7.541969e-01 2.982622e-07 -1.224029e-05 2.059797e-01
1.0875         5.799210e-07 -1.691951e-05 9.594981e-01 2.847871e-07 -4.792066e-06 7.537176e-01 2.951339e-07 -1.212744e-05 2.057805e-01
1.095          5.755563e-07 -1.676770e-05 9.588223e-01 2.833499e-07 -4.750399e-06 7.532395e-01 2.922064e-07 -1.201730e-05 2.055829e-01
1.1025         5.715183e-07 -1.661676e-05 9.581535e-01 2.819438e-07 -4.707320e-06 7.527667e-01 2.895746e-07 -1.190945e-05 2.053868e-01
1.11           5.659911e-07 -1.646500e-05 9.574870e-01 2.791954e-07 -4.662337e-06 7.522947e-01 2.867957e-07 -1.180267e-05 2.051923e-01
1.1175         5.603115e-07 -1.631522e-05 9.568274e-01 2.764474e-07 -4.617886e-06 7.518280e-01 2.838641e-07 -1.169733e-05 2.049993e-01
1.125          5.563834e-07 -1.614035e-05 9.561704e-01 2.751824e-07 -4.551808e-06 7.513625e-01 2.812010e-07 -1.158854e-05 2.048079e-01
1.1325         5.503718e-07 -1.602967e-05 9.555208e-01 2.720213e-07 -4.542243e-06 7.509028e-01 2.783505e-07 -1.148743e-05 2.046180e-01
1.14           5.465600e-07 -1.585774e-05 9.548748e-01 2.708938e-07 -4.473350e-06 7.504451e-01 2.756662e-07 -1.138439e-05 2.044296e-01
1.1475         5.415718e-07 -1.571165e-05 9.542329e-01 2.685089e-07 -4.431046e-06 7.499902e-01 2.730629e-07 -1.128060e-05 2.042427e-01
1.155          5.370631e-07 -1.557777e-05 9.535950e-01 2.665694e-07 -4.396562e-06 7.495377e-01 2.704937e-07 -1.118121e-05 2.040573e-01
1.1625         5.320855e-07 -1.542790e-05 9.529622e-01 2.642377e-07 -4.346208e-06 7.490889e-01 2.678478e-07 -1.108169e-05 2.038733e-01
1.17           5.271657e-07 -1.531010e-05 9.523323e-01 2.619607e-07 -4.323819e-06 7.486415e-01 2.652050e-07 -1.098629e-05 2.036908e-01
1.1775         5.224844e-07 -1.514063e-05 9.517078e-01 2.599199e-07 -4.253364e-06 7.481980e-01 2.625645e-07 -1.088727e-05 2.035098e-01
1.185          5.193738e-07 -1.501313e-05 9.510882e-01 2.591344e-07 -4.223517e-06 7.477580e-01 2.602394e-07 -1.078961e-05 2.033302e-01
1.1925         5.150136e-07 -1.489342e-05 9.504712e-01 2.570347e-07 -4.195701e-06 7.473192e-01 2.579790e-07 -1.069772e-05 2.031520e-01
1.2            5.109272e-07 -1.476241e-05 9.498595e-01 2.552325e-07 -4.155184e-06 7.468843e-01 2.556947e-07 -1.060723e-05 2.029752e-01
1.2075         5.061461e-07 -1.460335e-05 9.492534e-01 2.528763e-07 -4.091595e-06 7.464536e-01 2.532698e-07 -1.051176e-05 2.027998e-01
1.215          5.023272e-07 -1.448989e-05 9.486496e-01 2.513544e-07 -4.070269e-06 7.460238e-01 2.509727e-07 -1.041962e-05 2.026258e-01
1.2225         4.984377e-07 -1.436116e-05 9.480498e-01 2.496514e-07 -4.030415e-06 7.455966e-01 2.487863e-07 -1.033075e-05 2.024532e-01
1.23           4.944013e-07 -1.424166e-05 9.474551e-01 2.478175e-07 -3.998204e-06 7.451731e-01 2.465838e-07 -1.024346e-05 2.022820e-01
1.2375         4.897456e-07 -1.412379e-05 9.468635e-01 2.454602e-07 -3.965703e-06 7.447514e-01 2.442853e-07 -1.015809e-05 2.021121e-01
1.245          4.875366e-07 -1.400108e-05 9.462772e-01 2.452272e-07 -3.927798e-06 7.443336e-01 2.423094e-07 -1.007328e-05 2.019436e-01
1.2525         4.817340e-07 -1.388385e-05 9.456941e-01 2.416844e-07 -3.894515e-06 7.439177e-01 2.400495e-07 -9.989334e-06 2.017763e-01
1.26           4.803996e-07 -1.374504e-05 9.451157e-01 2.422041e-07 -3.842199e-06 7.435052e-01 2.381955e-07 -9.902841e-06 2.016104e-01
1.2675         4.755294e-07 -1.362030e-05 9.445409e-01 2.393171e-07 -3.804055e-06 7.430951e-01 2.362123e-07 -9.816248e-06 2.014458e-01
1.275          4.715903e-07 -1.350908e-05 9.439715e-01 2.375208e-07 -3.775905e-06 7.426890e-01 2.340694e-07 -9.733173e-06 2.012825e-01
1.2825         4.683451e-07 -1.340717e-05 9.434034e-01 2.362239e-07 -3.752849e-06 7.422829e-01 2.321212e-07 -9.654320e-06 2.011205e-01
1.29           4.647238e-07 -1.328683e-05 9.428400e-01 2.345309e-07 -3.712014e-06 7.418803e-01 2.301929e-07 -9.574819e-06 2.009597e-01
1.2975         4.615994e-07 -1.315711e-05 9.422802e-01 2.332555e-07 -3.664761e-06 7.414801e-01 2.283440e-07 -9.492345e-06 2.008001e-01
1.305          4.572058e-07 -1.305912e-05 9.417262e-01 2.308519e-07 -3.645659e-06 7.410843e-01 2.263539e-07 -9.413459e-06 2.006419e-01
1.3125         4.537387e-07 -1.293640e-05 9.411735e-01 2.293923e-07 -3.602058e-06 7.406887e-01 2.243465e-07 -9.334339e-06 2.004848e-01
1.32           4.510052e-07 -1.283159e-05 9.406252e-01 2.284414e-07 -3.574990e-06 7.402962e-01 2.225638e-07 -9.256604e-06 2.003290e-01
1.3275         4.474689e-07 -1.272030e-05 9.400813e-01 2.266729e-07 -3.539739e-06 7.399069e-01 2.207960e-07 -9.180565e-06 2.001743e-01
1.335          4.435466e-07 -1.261267e-05 9.395410e-01 2.246593e-07 -3.508349e-06 7.395200e-01 2.188873e-07 -9.104319e-06 2.000209e-01
1.3425         4.414581e-07 -1.250553e-05 9.390038e-01 2.242157e-07 -3.476417e-06 7.391352e-01 2.172424e-07 -9.029117e-06 1.998687e-01
1.35           4.372302e-07 -1.239252e-05 9.384707e-01 2.217875e-07 -3.438895e-06 7.387531e-01 2.154427e-07 -8.953626e-06 1.997176e-01
1.3575         4.341483e-07 -1.229230e-05 9.379408e-01 2.206121e-07 -3.413263e-06 7.383732e-01 2.135362e-07 -8.879036e-06 1.995676e-01
1.365          4.310305e-07 -1.218580e-05 9.374142e-01 2.191815e-07 -3.379703e-06 7.379953e-01 2.118491e-07 -8.806101e-06 1.994189e-01
1.3725         4.281832e-07 -1.207090e-05 9.368912e-01 2.180399e-07 -3.339557e-06 7.376200e-01 2.101432e-07 -8.731345e-06 1.992712e-01
1.38           4.244405e-07 -1.198630e-05 9.363726e-01 2.160223e-07 -3.325198e-06 7.372479e-01 2.084182e-07 -8.661106e-06 1.991247e-01
1.3875         4.220843e-07 -1.188585e-05 9.358572e-01 2.152626e-07 -3.293719e-06 7.368779e-01 2.068217e-07 -8.592136e-06 1.989792e-01
1.395          4.187199e-07 -1.178920e-05 9.353453e-01 2.135936e-07 -3.266544e-06 7.365104e-01 2.051263e-07 -8.522658e-06 1.988349e-01
1.4025         4.161030e-07 -1.168383e-05 9.348358e-01 2.125044e-07 -3.230487e-06 7.361441e-01 2.035986e-07 -8.453339e-06 1.986917e-01
1.41           4.129706e-07 -1.158543e-05 9.343303e-01 2.109949e-07 -3.202133e-06 7.357807e-01 2.019756e-07 -8.383296e-06 1.985496e-01
1.4175         4.101416e-07 -1.148464e-05 9.338272e-01 2.097751e-07 -3.170657e-06 7.354187e-01 2.003665e-07 -8.313978e-06 1.984085e-01
1.425          4.070711e-07 -1.139697e-05 9.333294e-01 2.082354e-07 -3.149265e-06 7.350609e-01 1.988357e-07 -8.247708e-06 1.982685e-01
1.4325         4.052474e-07 -1.129057e-05 9.328338e-01 2.077655e-07 -3.110280e-06 7.347042e-01 1.974819e-07 -8.180291e-06 1.981295e-01
1.44           4.012935e-07 -1.121101e-05 9.323419e-01 2.053323e-07 -3.095470e-06 7.343503e-01 1.959612e-07 -8.115544e-06 1.979916e-01
1.4475         3.992743e-07 -1.111438e-05 9.318521e-01 2.047597e-07 -3.063218e-06 7.339974e-01 1.945146e-07 -8.051158e-06 1.978547e-01
1.455          3.958310e-07 -1.101155e-05 9.313673e-01 2.028093e-07 -3.026694e-06 7.336484e-01 1.930218e-07 -7.984858e-06 1.977189e-01
1.4625         3.940603e-07 -1.093012e-05 9.308843e-01 2.023759e-07 -3.009185e-06 7.333003e-01 1.916844e-07 -7.920938e-06 1.975840e-01
1.47           3.896894e-07 -1.083405e-05 9.304043e-01 1.996153e-07 -2.976973e-06 7.329542e-01 1.900742e-07 -7.857076e-06 1.974501e-01
1.4775         3.875774e-07 -1.074188e-05 9.299278e-01 1.990095e-07 -2.948552e-06 7.326106e-01 1.885679e-07 -7.793330e-06 1.973172e-01
1.485          3.850133e-07 -1.065585e-05 9.294543e-01 1.978054e-07 -2.924994e-06 7.322690e-01 1.872079e-07 -7.730855e-06 1.971853e-01
1.4925         3.829262e-07 -1.057275e-05 9.289833e-01 1.970000e-07 -2.902737e-06 7.319289e-01 1.859262e-07 -7.670017e-06 1.970544e-01
1.5            3.802451e-07 -1.048975e-05 9.285165e-01 1.956139e-07 -2.879532e-06 7.315921e-01 1.846312e-07 -7.610213e-06 1.969244e-01
1.5075         3.769007e-07 -1.038598e-05 9.280524e-01 1.937422e-07 -2.838386e-06 7.312570e-01 1.831586e-07 -7.547594e-06 1.967954e-01
1.515          3.753714e-07 -1.030451e-05 9.275911e-01 1.934722e-07 -2.818636e-06 7.309238e-01 1.818992e-07 -7.485879e-06 1.966673e-01
1.5225         3.722203e-07 -1.021943e-05 9.271329e-01 1.916318e-07 -2.793309e-06 7.305927e-01 1.805885e-07 -7.426119e-06 1.965402e-01
1.53           3.694171e-07 -1.015309e-05 9.266765e-01 1.902331e-07 -2.783251e-06 7.302626e-01 1.791839e-07 -7.369844e-06 1.964140e-01
1.5375         3.677065e-07 -1.004498e-05 9.262253e-01 1.897328e-07 -2.735466e-06 7.299366e-01 1.779738e-07 -7.309515e-06 1.962887e-01
1.545          3.654678e-07 -9.981954e-06 9.257748e-01 1.886421e-07 -2.729803e-06 7.296105e-01 1.768256e-07 -7.252151e-06 1.961643e-01
1.5525         3.625455e-07 -9.900133e-06 9.253274e-01 1.870023e-07 -2.703683e-06 7.292867e-01 1.755432e-07 -7.196450e-06 1.960408e-01
1.56           3.599689e-07 -9.805856e-06 9.248837e-01 1.857221e-07 -2.667868e-06 7.289655e-01 1.742468e-07 -7.137988e-06 1.959182e-01
1.5675         3.578780e-07 -9.732784e-06 9.244428e-01 1.848597e-07 -2.651418e-06 7.286463e-01 1.730183e-07 -7.081365e-06 1.957965e-01
1.575          3.038575e-07 -9.507447e-06 9.240051e-01 1.314457e-07 -2.479284e-06 7.283294e-01 1.724118e-07 -7.028163e-06 1.956756e-01
1.5825         3.029726e-07 -9.449059e-06 9.235680e-01 1.318185e-07 -2.473132e-06 7.280124e-01 1.711540e-07 -6.975927e-06 1.955556e-01
1.59           3.008551e-07 -9.363536e-06 9.231346e-01 1.310156e-07 -2.441637e-06 7.276981e-01 1.698396e-07 -6.921899e-06 1.954365e-01
1.5975         2.984542e-07 -9.285318e-06 9.227048e-01 1.297949e-07 -2.417968e-06 7.273866e-01 1.686593e-07 -6.867350e-06 1.953182e-01
1.605          2.967668e-07 -9.217281e-06 9.222772e-01 1.292096e-07 -2.402248e-06 7.270764e-01 1.675572e-07 -6.815032e-06 1.952007e-01
1.6125         2.945135e-07 -9.133051e-06 9.218524e-01 1.280815e-07 -2.371636e-06 7.267682e-01 1.664320e-07 -6.761415e-06 1.950841e-01
1.62           2.940530e-07 -9.073645e-06 9.214298e-01 1.284551e-07 -2.362728e-06 7.264615e-01 1.655980e-07 -6.710918e-06 1.949684e-01
1.6275         2.911982e-07 -8.985432e-06 9.210101e-01 1.266345e-07 -2.327225e-06 7.261567e-01 1.645637e-07 -6.658207e-06 1.948534e-01
1.635          2.901435e-07 -8.928112e-06 9.205930e-01 1.265411e-07 -2.320407e-06 7.258538e-01 1.636025e-07 -6.607705e-06 1.947392e-01
1.6425         2.885098e-07 -8.863474e-06 9.201787e-01 1.257936e-07 -2.303937e-06 7.255528e-01 1.627161e-07 -6.559536e-06 1.946259e-01
1.65           2.863745e-07 -8.778874e-06 9.197677e-01 1.246478e-07 -2.270116e-06 7.252543e-01 1.617266e-07 -6.508758e-06 1.945134e-01