# Moment      
# CofR        : (0.000000e+00 0.000000e+00 0.000000e+00)
#
# Time        	total_x total_y total_z	pressure_x pressure_y pressure_z	viscous_x viscous_y viscous_z
0.0075         -1.745977e-05 -2.096638e-05 8.939541e-09 -1.745190e-05 -2.087512e-05 -2.862963e-16 -7.869110e-09 -9.126167e-08 8.939542e-09
0.015          3.041929e-05 4.819678e-05 -3.149696e-08 3.159554e-05 4.868874e-05 -3.380542e-16 -1.176255e-06 -4.919605e-07 -3.149696e-08
0.0225         3.665809e-05 -1.913731e-05 1.355826e-08 3.157613e-05 -1.931837e-05 5.177635e-15 5.081963e-06 1.810590e-07 1.355825e-08
0.03           8.664052e-05 -2.771131e-05 9.540306e-08 8.168605e-05 -2.769824e-05 1.879464e-15 4.954466e-06 -1.307823e-08 9.540306e-08
0.0375         2.416766e-05 -1.233250e-05 6.875678e-08 2.022442e-05 -1.220400e-05 1.868582e-15 3.943242e-06 -1.285005e-07 6.875678e-08
0.045          9.648698e-06 -3.532994e-06 3.940296e-08 6.534820e-06 -3.502368e-06 2.208737e-15 3.113878e-06 -3.062616e-08 3.940296e-08
0.0525         9.205464e-06 6.865428e-07 3.662792e-08 7.629261e-06 7.391006e-07 2.125944e-15 1.576203e-06 -5.255780e-08 3.662791e-08
0.06           6.329466e-06 8.994533e-07 3.579696e-08 5.757567e-06 9.754891e-07 1.942551e-15 5.718984e-07 -7.603583e-08 3.579696e-08
0.0675         3.918996e-06 8.158494e-07 4.298530e-08 4.126686e-06 9.034662e-07 1.712172e-15 -2.076909e-07 -8.761675e-08 4.298530e-08
0.075          3.011886e-06 3.053622e-07 5.051459e-08 3.860003e-06 3.997329e-07 1.526340e-15 -8.481173e-07 -9.437071e-08 5.051459e-08
0.0825         1.357161e-06 2.441674e-07 5.295713e-08 2.695651e-06 3.411818e-07 1.371285e-15 -1.338490e-06 -9.701439e-08 5.295713e-08
0.09           3.712051e-08 1.874336e-07 5.212095e-08 1.774855e-06 2.868951e-07 1.247890e-15 -1.737735e-06 -9.946149e-08 5.212095e-08
0.0975         -1.047258e-06 1.401005e-07 4.958590e-08 1.016066e-06 2.380955e-07 1.139307e-15 -2.063324e-06 -9.799499e-08 4.958590e-08
0.105          -1.939278e-06 1.102434e-07 4.616087e-08 3.811032e-07 2.059540e-07 1.046648e-15 -2.320382e-06 -9.571060e-08 4.616087e-08
0.1125         -2.658570e-06 7.734054e-08 4.227993e-08 -1.335076e-07 1.735684e-07 9.762427e-16 -2.525062e-06 -9.622790e-08 4.227993e-08
0.12           -3.246447e-06 5.277897e-08 3.823368e-08 -5.572516e-07 1.479043e-07 9.074908e-16 -2.689195e-06 -9.512528e-08 3.823368e-08
0.1275         -3.754008e-06 3.268943e-08 3.418029e-08 -9.334865e-07 1.261738e-07 8.581054e-16 -2.820521e-06 -9.348432e-08 3.418029e-08
0.135          -4.131920e-06 1.174535e-08 3.021929e-08 -1.215127e-06 1.045751e-07 8.004665e-16 -2.916793e-06 -9.282970e-08 3.021929e-08
0.1425         -4.493113e-06 5.912112e-09 2.642440e-08 -1.501120e-06 9.817841e-08 7.590906e-16 -2.991993e-06 -9.226630e-08 2.642440e-08
0.15           -4.824585e-06 -1.689107e-08 2.283169e-08 -1.772702e-06 7.494276e-08 7.226614e-16 -3.051883e-06 -9.183383e-08 2.283169e-08
0.1575         -5.002115e-06 -2.716422e-08 1.943901e-08 -1.906747e-06 6.392529e-08 6.764744e-16 -3.095368e-06 -9.108950e-08 1.943901e-08
0.165          -5.246709e-06 -4.208598e-08 1.627857e-08 -2.124014e-06 4.885404e-08 6.620952e-16 -3.122695e-06 -9.094002e-08 1.627857e-08
0.1725         -5.413790e-06 -5.645902e-08 1.337454e-08 -2.271653e-06 3.448543e-08 6.332825e-16 -3.142137e-06 -9.094446e-08 1.337454e-08
0.18           -5.551159e-06 -6.371897e-08 1.069155e-08 -2.401325e-06 2.717035e-08 6.075530e-16 -3.149834e-06 -9.088932e-08 1.069155e-08
0.1875         -5.600666e-06 -5.575370e-08 8.187305e-09 -2.449863e-06 3.456160e-08 5.798517e-16 -3.150804e-06 -9.031530e-08 8.187305e-09
0.195          -5.800860e-06 -1.005442e-07 5.884530e-09 -2.651712e-06 -9.998901e-09 5.603292e-16 -3.149148e-06 -9.054533e-08 5.884530e-09
0.2025         -5.808882e-06 -8.290330e-08 3.711912e-09 -2.669498e-06 7.381777e-09 5.400411e-16 -3.139384e-06 -9.028508e-08 3.711912e-09
0.21           -5.900647e-06 -1.200824e-07 1.767738e-09 -2.774463e-06 -2.905715e-08 5.129564e-16 -3.126184e-06 -9.102524e-08 1.767738e-09
0.2175         -5.918297e-06 -1.044203e-07 -1.663224e-11 -2.810033e-06 -1.360283e-08 5.026294e-16 -3.108264e-06 -9.081748e-08 -1.663275e-11
0.225          -5.919709e-06 -1.046394e-07 -1.650660e-09 -2.833362e-06 -1.408880e-08 4.821108e-16 -3.086347e-06 -9.055062e-08 -1.650661e-09
0.2325         -5.992478e-06 -1.307003e-07 -3.181131e-09 -2.929227e-06 -4.001981e-08 4.707741e-16 -3.063251e-06 -9.068047e-08 -3.181132e-09
0.24           -6.012693e-06 -1.627881e-07 -4.562811e-09 -2.975066e-06 -7.162289e-08 4.550871e-16 -3.037628e-06 -9.116524e-08 -4.562811e-09
0.2475         -6.019333e-06 -1.450645e-07 -5.799770e-09 -3.009215e-06 -5.377735e-08 4.399015e-16 -3.010119e-06 -9.128712e-08 -5.799770e-09
0.255          -5.966064e-06 -1.516167e-07 -6.937915e-09 -2.985326e-06 -6.023422e-08 4.264980e-16 -2.980738e-06 -9.138248e-08 -6.937915e-09
0.2625         -5.950015e-06 -1.600134e-07 -7.981721e-09 -2.999877e-06 -6.843248e-08 4.152088e-16 -2.950138e-06 -9.158090e-08 -7.981722e-09
0.27           -6.020549e-06 -1.706213e-07 -8.928658e-09 -3.101357e-06 -7.884685e-08 4.011955e-16 -2.919191e-06 -9.177445e-08 -8.928658e-09
0.2775         -5.970879e-06 -1.792917e-07 -9.787532e-09 -3.083717e-06 -8.728305e-08 3.897300e-16 -2.887162e-06 -9.200868e-08 -9.787533e-09
0.285          -6.033634e-06 -2.061296e-07 -1.055205e-08 -3.178931e-06 -1.136859e-07 3.780003e-16 -2.854703e-06 -9.244369e-08 -1.055205e-08
0.2925         -5.843341e-06 -1.903427e-07 -1.126013e-08 -3.022946e-06 -9.784762e-08 3.685203e-16 -2.820395e-06 -9.249512e-08 -1.126013e-08
0.3            -5.928899e-06 -2.030997e-07 -1.189343e-08 -3.143223e-06 -1.104343e-07 3.570007e-16 -2.785676e-06 -9.266536e-08 -1.189343e-08
0.3075         -5.837845e-06 -2.036051e-07 -1.246538e-08 -3.086582e-06 -1.106882e-07 3.478188e-16 -2.751263e-06 -9.291693e-08 -1.246538e-08
0.315          -5.896409e-06 -2.219426e-07 -1.298335e-08 -3.178948e-06 -1.287645e-07 3.370242e-16 -2.717461e-06 -9.317810e-08 -1.298335e-08
0.3225         -5.770025e-06 -2.244700e-07 -1.343772e-08 -3.088217e-06 -1.311101e-07 3.294890e-16 -2.681807e-06 -9.335990e-08 -1.343772e-08
0.33           -5.798641e-06 -2.387247e-07 -1.384488e-08 -3.151972e-06 -1.451397e-07 3.172240e-16 -2.646669e-06 -9.358504e-08 -1.384488e-08
0.3375         -5.658882e-06 -2.250937e-07 -1.421410e-08 -3.046225e-06 -1.315437e-07 3.088011e-16 -2.612657e-06 -9.355002e-08 -1.421410e-08
0.345          -5.771529e-06 -2.463347e-07 -1.453629e-08 -3.190173e-06 -1.523793e-07 3.005883e-16 -2.581356e-06 -9.395541e-08 -1.453629e-08
0.3525         -5.629585e-06 -2.591150e-07 -1.480987e-08 -3.083550e-06 -1.650264e-07 2.933377e-16 -2.546034e-06 -9.408860e-08 -1.480987e-08
0.36           -5.635659e-06 -2.597425e-07 -1.507286e-08 -3.125466e-06 -1.652000e-07 2.834443e-16 -2.510193e-06 -9.454250e-08 -1.507286e-08
0.3675         -5.548909e-06 -2.540783e-07 -1.529394e-08 -3.073141e-06 -1.598239e-07 2.785044e-16 -2.475767e-06 -9.425437e-08 -1.529394e-08
0.375          -5.506701e-06 -2.617808e-07 -1.548142e-08 -3.065632e-06 -1.673799e-07 2.706033e-16 -2.441069e-06 -9.440089e-08 -1.548142e-08
0.3825         -5.531107e-06 -2.763786e-07 -1.564223e-08 -3.122614e-06 -1.817481e-07 2.629123e-16 -2.408492e-06 -9.463048e-08 -1.564223e-08
0.39           -5.396150e-06 -2.771868e-07 -1.578593e-08 -3.023237e-06 -1.826000e-07 2.570643e-16 -2.372913e-06 -9.458679e-08 -1.578594e-08
0.3975         -5.399371e-06 -2.756391e-07 -1.590618e-08 -3.060425e-06 -1.810630e-07 2.487092e-16 -2.338945e-06 -9.457612e-08 -1.590618e-08
0.405          -5.354328e-06 -2.874556e-07 -1.598865e-08 -3.048056e-06 -1.929684e-07 2.421295e-16 -2.306272e-06 -9.448721e-08 -1.598865e-08
0.4125         -5.307851e-06 -2.925361e-07 -1.605913e-08 -3.034127e-06 -1.980429e-07 2.370337e-16 -2.273724e-06 -9.449321e-08 -1.605913e-08
0.42           -5.148321e-06 -2.957890e-07 -1.612103e-08 -2.910621e-06 -2.014569e-07 2.329883e-16 -2.237700e-06 -9.433207e-08 -1.612103e-08
0.4275         -5.304707e-06 -3.099874e-07 -1.615485e-08 -3.097523e-06 -2.152724e-07 2.219701e-16 -2.207184e-06 -9.471501e-08 -1.615485e-08
0.435          -5.144292e-06 -2.888572e-07 -1.616866e-08 -2.969530e-06 -1.942907e-07 2.203234e-16 -2.174762e-06 -9.456645e-08 -1.616866e-08
0.4425         -5.123754e-06 -3.155135e-07 -1.617215e-08 -2.981726e-06 -2.211014e-07 2.144213e-16 -2.142028e-06 -9.441205e-08 -1.617215e-08
0.45           -5.015495e-06 -3.012215e-07 -1.616474e-08 -2.906305e-06 -2.069342e-07 2.089664e-16 -2.109190e-06 -9.428733e-08 -1.616474e-08
0.4575         -5.001388e-06 -3.076120e-07 -1.614569e-08 -2.923894e-06 -2.135749e-07 2.059984e-16 -2.077494e-06 -9.403713e-08 -1.614569e-08
0.465          -4.961968e-06 -3.140807e-07 -1.611747e-08 -2.915833e-06 -2.202492e-07 1.994525e-16 -2.046134e-06 -9.383146e-08 -1.611747e-08
0.4725         -4.948932e-06 -3.223344e-07 -1.607682e-08 -2.932893e-06 -2.285707e-07 1.949938e-16 -2.016040e-06 -9.376370e-08 -1.607682e-08
0.48           -4.832806e-06 -3.111607e-07 -1.602373e-08 -2.848965e-06 -2.177291e-07 1.924459e-16 -1.983841e-06 -9.343165e-08 -1.602373e-08
0.4875         -4.766589e-06 -3.277739e-07 -1.596395e-08 -2.814358e-06 -2.345395e-07 1.875263e-16 -1.952231e-06 -9.323439e-08 -1.596395e-08
0.495          -4.755704e-06 -3.260237e-07 -1.589748e-08 -2.833272e-06 -2.330047e-07 1.851411e-16 -1.922432e-06 -9.301904e-08 -1.589748e-08
0.5025         -4.703942e-06 -3.240092e-07 -1.582182e-08 -2.811854e-06 -2.314873e-07 1.788256e-16 -1.892088e-06 -9.252184e-08 -1.582182e-08
0.51           -4.705342e-06 -3.254682e-07 -1.573879e-08 -2.842242e-06 -2.330555e-07 1.744278e-16 -1.863100e-06 -9.241268e-08 -1.573879e-08
0.5175         -4.566601e-06 -3.292948e-07 -1.564832e-08 -2.733805e-06 -2.372591e-07 1.717444e-16 -1.832797e-06 -9.203568e-08 -1.564832e-08
0.525          -4.540411e-06 -3.408645e-07 -1.556027e-08 -2.737229e-06 -2.491849e-07 1.674618e-16 -1.803182e-06 -9.167954e-08 -1.556027e-08
0.5325         -4.553988e-06 -3.273085e-07 -1.546269e-08 -2.778537e-06 -2.360498e-07 1.622170e-16 -1.775451e-06 -9.125871e-08 -1.546269e-08
0.54           -4.364417e-06 -3.486841e-07 -1.410309e-08 -2.628512e-06 -2.571792e-07 1.680310e-16 -1.735905e-06 -9.150492e-08 -1.410309e-08
0.5475         -4.229231e-06 -3.270782e-07 -1.274572e-08 -2.525557e-06 -2.357774e-07 1.693998e-16 -1.703674e-06 -9.130078e-08 -1.274572e-08
0.555          -4.192924e-06 -3.459569e-07 -1.174895e-08 -2.516759e-06 -2.537435e-07 1.726863e-16 -1.676166e-06 -9.221337e-08 -1.174895e-08
0.5625         -4.231938e-06 -3.536543e-07 -1.135373e-08 -2.578929e-06 -2.605849e-07 1.715750e-16 -1.653009e-06 -9.306949e-08 -1.135373e-08
0.57           -4.135408e-06 -3.453699e-07 -1.150471e-08 -2.503629e-06 -2.522166e-07 1.692236e-16 -1.631779e-06 -9.315327e-08 -1.150471e-08
0.5775         -4.074859e-06 -3.521595e-07 -1.190825e-08 -2.465158e-06 -2.587476e-07 1.654696e-16 -1.609701e-06 -9.341191e-08 -1.190825e-08
0.585          -4.076249e-06 -3.616420e-07 -1.244097e-08 -2.486028e-06 -2.679789e-07 1.630166e-16 -1.590222e-06 -9.366302e-08 -1.244097e-08
0.5925         -4.046593e-06 -3.535593e-07 -1.304053e-08 -2.475326e-06 -2.598699e-07 1.592964e-16 -1.571267e-06 -9.368946e-08 -1.304053e-08
0.6            -3.935651e-06 -3.585636e-07 -1.365255e-08 -2.384808e-06 -2.649630e-07 1.537195e-16 -1.550843e-06 -9.360059e-08 -1.365255e-08
0.6075         -3.959037e-06 -3.620602e-07 -1.426714e-08 -2.427957e-06 -2.686980e-07 1.543972e-16 -1.531081e-06 -9.336222e-08 -1.426714e-08
0.615          -3.909954e-06 -3.628258e-07 -1.487189e-08 -2.397289e-06 -2.693775e-07 1.515986e-16 -1.512665e-06 -9.344829e-08 -1.487189e-08
0.6225         -3.969333e-06 -3.605322e-07 -1.545534e-08 -2.474078e-06 -2.672057e-07 1.464554e-16 -1.495255e-06 -9.332652e-08 -1.545534e-08
0.63           -3.850808e-06 -3.721879e-07 -1.599784e-08 -2.374695e-06 -2.788147e-07 1.406142e-16 -1.476113e-06 -9.337314e-08 -1.599784e-08
0.6375         -3.841182e-06 -3.697945e-07 -1.650021e-08 -2.384068e-06 -2.765741e-07 1.391370e-16 -1.457115e-06 -9.322039e-08 -1.650021e-08
0.645          -3.805540e-06 -3.642741e-07 -1.697255e-08 -2.366693e-06 -2.711501e-07 1.361284e-16 -1.438846e-06 -9.312407e-08 -1.697255e-08
0.6525         -3.754269e-06 -3.661128e-07 -1.740559e-08 -2.334385e-06 -2.732439e-07 1.332213e-16 -1.419884e-06 -9.286890e-08 -1.740559e-08
0.66           -3.800312e-06 -3.745922e-07 -1.780481e-08 -2.397851e-06 -2.818777e-07 1.326250e-16 -1.402461e-06 -9.271455e-08 -1.780481e-08
0.6675         -3.727080e-06 -3.700162e-07 -1.816798e-08 -2.343094e-06 -2.775560e-07 1.262553e-16 -1.383986e-06 -9.246018e-08 -1.816798e-08
0.675          -3.696167e-06 -3.679789e-07 -1.849877e-08 -2.330580e-06 -2.757983e-07 1.240531e-16 -1.365587e-06 -9.218057e-08 -1.849877e-08
0.6825         -3.647275e-06 -3.730738e-07 -1.879126e-08 -2.300349e-06 -2.810883e-07 1.218643e-16 -1.346926e-06 -9.198545e-08 -1.879126e-08
0.69           -3.655996e-06 -3.716707e-07 -1.905470e-08 -2.326828e-06 -2.799901e-07 1.188082e-16 -1.329168e-06 -9.168057e-08 -1.905470e-08
0.6975         -3.625479e-06 -3.712242e-07 -1.927987e-08 -2.314304e-06 -2.799141e-07 1.151829e-16 -1.311175e-06 -9.131009e-08 -1.927987e-08
0.705          -3.578078e-06 -3.721512e-07 -1.947586e-08 -2.285420e-06 -2.812157e-07 1.106767e-16 -1.292658e-06 -9.093542e-08 -1.947586e-08
0.7125         -3.514101e-06 -3.640293e-07 -1.964834e-08 -2.240091e-06 -2.735087e-07 1.107580e-16 -1.274010e-06 -9.052061e-08 -1.964834e-08
0.72           -3.499819e-06 -3.664342e-07 -1.979481e-08 -2.243272e-06 -2.763081e-07 1.085422e-16 -1.256547e-06 -9.012612e-08 -1.979481e-08
0.7275         -3.436578e-06 -3.752346e-07 -1.991222e-08 -2.198477e-06 -2.854211e-07 1.052286e-16 -1.238101e-06 -8.981355e-08 -1.991222e-08
0.735          -3.498494e-06 -3.682402e-07 -2.000796e-08 -2.276505e-06 -2.787401e-07 1.026130e-16 -1.221989e-06 -8.950010e-08 -2.000796e-08
0.7425         -3.402168e-06 -3.700410e-07 -2.008245e-08 -2.197801e-06 -2.809664e-07 1.033177e-16 -1.204367e-06 -8.907459e-08 -2.008245e-08
0.75           -3.363147e-06 -3.666411e-07 -2.013584e-08 -2.177133e-06 -2.779714e-07 1.015965e-16 -1.186014e-06 -8.866965e-08 -2.013584e-08
0.7575         -3.825887e-06 -2.256328e-07 -2.023238e-08 -2.736374e-06 -1.388445e-07 1.639788e-16 -1.089513e-06 -8.678832e-08 -2.023238e-08
0.765          -3.544807e-06 -2.788038e-07 -1.980544e-08 -2.547405e-06 -1.921898e-07 1.668045e-16 -9.974026e-07 -8.661407e-08 -1.980544e-08
0.7725         -3.362662e-06 -2.864600e-07 -1.951069e-08 -2.431675e-06 -1.992500e-07 1.575956e-16 -9.309869e-07 -8.721000e-08 -1.951069e-08
0.78           -3.291310e-06 -2.739858e-07 -1.938146e-08 -2.415767e-06 -1.868285e-07 1.452221e-16 -8.755434e-07 -8.715727e-08 -1.938146e-08
0.7875         -3.155532e-06 -2.807355e-07 -1.925242e-08 -2.326461e-06 -1.936120e-07 1.323946e-16 -8.290714e-07 -8.712352e-08 -1.925242e-08
0.795          -3.078619e-06 -2.796363e-07 -1.911566e-08 -2.289833e-06 -1.924592e-07 1.195197e-16 -7.887859e-07 -8.717719e-08 -1.911566e-08
0.8025         -2.994385e-06 -2.722272e-07 -1.897146e-08 -2.240574e-06 -1.853094e-07 1.084067e-16 -7.538110e-07 -8.691784e-08 -1.897146e-08
0.81           -2.888862e-06 -2.729473e-07 -1.882544e-08 -2.165858e-06 -1.861494e-07 1.027417e-16 -7.230045e-07 -8.679790e-08 -1.882544e-08
0.8175         -2.856184e-06 -2.741283e-07 -1.867341e-08 -2.159943e-06 -1.874222e-07 8.900622e-17 -6.962413e-07 -8.670610e-08 -1.867341e-08
0.825          -2.778120e-06 -2.753338e-07 -1.851894e-08 -2.107188e-06 -1.887830e-07 8.529961e-17 -6.709315e-07 -8.655078e-08 -1.851894e-08
0.8325         -2.741288e-06 -2.726984e-07 -1.835792e-08 -2.092503e-06 -1.863575e-07 7.944491e-17 -6.487845e-07 -8.634094e-08 -1.835792e-08
0.84           -2.705578e-06 -2.734727e-07 -1.819532e-08 -2.076796e-06 -1.873858e-07 7.056801e-17 -6.287811e-07 -8.608692e-08 -1.819532e-08
0.8475         -2.606370e-06 -2.690774e-07 -1.803178e-08 -1.997332e-06 -1.833433e-07 6.398826e-17 -6.090373e-07 -8.573411e-08 -1.803178e-08
0.855          -2.548207e-06 -2.637305e-07 -1.786313e-08 -1.957337e-06 -1.783906e-07 6.048493e-17 -5.908699e-07 -8.533989e-08 -1.786313e-08
0.8625         -2.512975e-06 -2.658449e-07 -1.769427e-08 -1.938666e-06 -1.807807e-07 5.406781e-17 -5.743094e-07 -8.506418e-08 -1.769427e-08
0.87           -2.479948e-06 -2.679509e-07 -1.752521e-08 -1.921048e-06 -1.832180e-07 5.335630e-17 -5.588994e-07 -8.473293e-08 -1.752521e-08
0.8775         -2.406713e-06 -2.647525e-07 -1.735413e-08 -1.862829e-06 -1.804070e-07 4.573978e-17 -5.438836e-07 -8.434551e-08 -1.735413e-08
0.885          -2.396438e-06 -2.658046e-07 -1.717889e-08 -1.865964e-06 -1.817968e-07 4.152494e-17 -5.304749e-07 -8.400787e-08 -1.717889e-08
0.8925         -2.373925e-06 -2.639007e-07 -1.700651e-08 -1.855887e-06 -1.801932e-07 4.446584e-17 -5.180378e-07 -8.370751e-08 -1.700651e-08
0.9            -2.356061e-06 -2.605890e-07 -1.683225e-08 -1.849962e-06 -1.773044e-07 3.680189e-17 -5.060993e-07 -8.328453e-08 -1.683225e-08
0.9075         -2.297468e-06 -2.621076e-07 -1.665554e-08 -1.803256e-06 -1.792129e-07 3.521624e-17 -4.942113e-07 -8.289474e-08 -1.665554e-08
0.915          -2.267796e-06 -2.563207e-07 -1.648190e-08 -1.785060e-06 -1.739402e-07 3.493842e-17 -4.827361e-07 -8.238052e-08 -1.648190e-08
0.9225         -2.220964e-06 -2.574812e-07 -1.630784e-08 -1.749280e-06 -1.754912e-07 3.359671e-17 -4.716848e-07 -8.198996e-08 -1.630784e-08
0.93           -2.207735e-06 -2.547198e-07 -1.613154e-08 -1.745820e-06 -1.732366e-07 3.262771e-17 -4.619155e-07 -8.148318e-08 -1.613154e-08
0.9375         -2.152789e-06 -2.535616e-07 -1.595738e-08 -1.702265e-06 -1.725699e-07 2.695598e-17 -4.505241e-07 -8.099174e-08 -1.595738e-08
0.945          -2.135838e-06 -2.502718e-07 -1.578137e-08 -1.694372e-06 -1.697275e-07 2.566171e-17 -4.414660e-07 -8.054432e-08 -1.578137e-08
0.9525         -2.098084e-06 -2.537754e-07 -1.560866e-08 -1.666317e-06 -1.736602e-07 2.345942e-17 -4.317675e-07 -8.011524e-08 -1.560866e-08
0.96           -2.114541e-06 -2.491226e-07 -1.544189e-08 -1.691324e-06 -1.694830e-07 2.309351e-17 -4.232179e-07 -7.963966e-08 -1.544189e-08
0.9675         -2.086035e-06 -2.514001e-07 -1.526768e-08 -1.671222e-06 -1.722427e-07 1.926492e-17 -4.148129e-07 -7.915743e-08 -1.526768e-08
0.975          -2.054991e-06 -2.467832e-07 -1.509462e-08 -1.648679e-06 -1.681066e-07 2.023392e-17 -4.063121e-07 -7.867660e-08 -1.509462e-08
0.9825         -2.025596e-06 -2.467943e-07 -1.492305e-08 -1.627680e-06 -1.686334e-07 1.818072e-17 -3.979160e-07 -7.816096e-08 -1.492305e-08
0.99           -1.988281e-06 -2.421603e-07 -1.475271e-08 -1.598604e-06 -1.645476e-07 1.669671e-17 -3.896775e-07 -7.761278e-08 -1.475271e-08
0.9975         -1.958995e-06 -2.438887e-07 -1.458387e-08 -1.577419e-06 -1.667293e-07 1.258352e-17 -3.815760e-07 -7.715944e-08 -1.458387e-08
1.005          -1.924317e-06 -2.403091e-07 -1.441390e-08 -1.550794e-06 -1.636758e-07 1.527370e-17 -3.735233e-07 -7.663335e-08 -1.441390e-08
1.0125         -1.927525e-06 -2.392280e-07 -1.424792e-08 -1.561167e-06 -1.631210e-07 1.338312e-17 -3.663577e-07 -7.610707e-08 -1.424792e-08
1.02           -1.890715e-06 -2.398650e-07 -1.408450e-08 -1.531925e-06 -1.642326e-07 1.049643e-17 -3.587899e-07 -7.563241e-08 -1.408450e-08
1.0275         -1.863426e-06 -2.345150e-07 -1.391966e-08 -1.512618e-06 -1.594419e-07 1.417594e-17 -3.508078e-07 -7.507312e-08 -1.391966e-08
1.035          -1.853933e-06 -2.347837e-07 -1.375487e-08 -1.509884e-06 -1.602531e-07 1.048966e-17 -3.440494e-07 -7.453058e-08 -1.375487e-08
1.0425         -1.847449e-06 -2.351859e-07 -1.359129e-08 -1.509636e-06 -1.611155e-07 7.230273e-18 -3.378130e-07 -7.407037e-08 -1.359129e-08
1.05           -1.804636e-06 -2.264103e-07 -1.343126e-08 -1.474093e-06 -1.529700e-07 8.585526e-18 -3.305431e-07 -7.344029e-08 -1.343126e-08
1.0575         -1.761594e-06 -2.329238e-07 -1.327345e-08 -1.438299e-06 -1.599382e-07 8.328028e-18 -3.232956e-07 -7.298565e-08 -1.327345e-08
1.065          -1.782019e-06 -2.270393e-07 -1.311642e-08 -1.464910e-06 -1.546013e-07 8.029872e-18 -3.171089e-07 -7.243803e-08 -1.311642e-08
1.0725         -1.713869e-06 -2.259493e-07 -1.296165e-08 -1.403429e-06 -1.540542e-07 4.716279e-18 -3.104401e-07 -7.189503e-08 -1.296165e-08
1.08           -1.711585e-06 -2.251933e-07 -1.280646e-08 -1.407720e-06 -1.538154e-07 5.000883e-18 -3.038652e-07 -7.137796e-08 -1.280646e-08
1.0875         -1.689598e-06 -2.222998e-07 -1.265454e-08 -1.392115e-06 -1.514619e-07 5.421011e-18 -2.974822e-07 -7.083791e-08 -1.265454e-08
1.095          -1.670724e-06 -2.224303e-07 -1.250368e-08 -1.379411e-06 -1.521078e-07 4.743385e-18 -2.913130e-07 -7.032243e-08 -1.250368e-08
1.1025         -1.669969e-06 -2.205420e-07 -1.235285e-08 -1.384404e-06 -1.507342e-07 5.841139e-18 -2.855643e-07 -6.980783e-08 -1.235285e-08
1.11           -1.643592e-06 -2.184660e-07 -1.220521e-08 -1.363979e-06 -1.492043e-07 5.617523e-18 -2.796134e-07 -6.926178e-08 -1.220521e-08
1.1175         -1.627680e-06 -2.170637e-07 -1.206004e-08 -1.353876e-06 -1.483267e-07 4.377466e-18 -2.738037e-07 -6.873700e-08 -1.206004e-08
1.125          -1.595112e-06 -2.166272e-07 -1.191513e-08 -1.327351e-06 -1.483957e-07 4.208060e-18 -2.677615e-07 -6.823152e-08 -1.191513e-08
1.1325         -1.577366e-06 -2.110904e-07 -1.177250e-08 -1.315051e-06 -1.434223e-07 3.747274e-18 -2.623152e-07 -6.766806e-08 -1.177250e-08
1.14           -1.554071e-06 -2.122412e-07 -1.163071e-08 -1.297505e-06 -1.450820e-07 3.720169e-18 -2.565662e-07 -6.715926e-08 -1.163071e-08
1.1475         -1.538887e-06 -2.092232e-07 -1.148820e-08 -1.288079e-06 -1.425948e-07 5.285486e-18 -2.508080e-07 -6.662836e-08 -1.148820e-08
1.155          -1.523928e-06 -2.098586e-07 -1.134984e-08 -1.278378e-06 -1.437347e-07 4.302927e-18 -2.455507e-07 -6.612389e-08 -1.134984e-08
1.1625         -1.504206e-06 -2.058550e-07 -1.121556e-08 -1.263899e-06 -1.402617e-07 4.065758e-18 -2.403071e-07 -6.559328e-08 -1.121556e-08
1.17           -1.489007e-06 -2.057208e-07 -1.107999e-08 -1.253804e-06 -1.406487e-07 2.737610e-18 -2.352025e-07 -6.507215e-08 -1.107999e-08
1.1775         -1.451855e-06 -2.020828e-07 -1.094435e-08 -1.222234e-06 -1.375438e-07 3.381356e-18 -2.296212e-07 -6.453897e-08 -1.094435e-08
1.185          -1.440489e-06 -2.028662e-07 -1.081055e-08 -1.215992e-06 -1.388167e-07 3.171291e-18 -2.244970e-07 -6.404952e-08 -1.081055e-08
1.1925         -1.437060e-06 -2.015724e-07 -1.067862e-08 -1.217321e-06 -1.380148e-07 3.591420e-18 -2.197389e-07 -6.355752e-08 -1.067862e-08
1.2            -1.425239e-06 -1.998746e-07 -1.054891e-08 -1.210148e-06 -1.368179e-07 3.367803e-18 -2.150903e-07 -6.305667e-08 -1.054891e-08
1.2075         -1.398249e-06 -1.962843e-07 -1.041888e-08 -1.188103e-06 -1.337614e-07 3.211949e-18 -2.101457e-07 -6.252285e-08 -1.041888e-08
1.215          -1.380968e-06 -1.973478e-07 -1.029193e-08 -1.175755e-06 -1.353084e-07 3.110305e-18 -2.052124e-07 -6.203941e-08 -1.029193e-08
1.2225         -1.375427e-06 -1.953392e-07 -1.016669e-08 -1.174689e-06 -1.337869e-07 2.744387e-18 -2.007382e-07 -6.155230e-08 -1.016669e-08
1.23           -1.359039e-06 -1.938486e-07 -1.004277e-08 -1.162736e-06 -1.327941e-07 2.886688e-18 -1.963029e-07 -6.105449e-08 -1.004277e-08
1.2375         -1.347245e-06 -1.921145e-07 -9.920459e-09 -1.155405e-06 -1.315588e-07 2.839254e-18 -1.918393e-07 -6.055565e-08 -9.920459e-09
1.245          -1.333301e-06 -1.903428e-07 -9.800109e-09 -1.145883e-06 -1.302651e-07 3.164515e-18 -1.874179e-07 -6.007773e-08 -9.800109e-09
1.2525         -1.309833e-06 -1.886569e-07 -9.682024e-09 -1.126816e-06 -1.290918e-07 2.717282e-18 -1.830168e-07 -5.956508e-08 -9.682024e-09
1.26           -1.290211e-06 -1.889817e-07 -9.561398e-09 -1.111583e-06 -1.298558e-07 2.148076e-18 -1.786284e-07 -5.912582e-08 -9.561398e-09
1.2675         -1.267164e-06 -1.851918e-07 -9.442590e-09 -1.093064e-06 -1.265761e-07 1.897354e-18 -1.740998e-07 -5.861567e-08 -9.442590e-09
1.275          -1.262230e-06 -1.849552e-07 -9.326670e-09 -1.092172e-06 -1.268254e-07 1.795710e-18 -1.700582e-07 -5.812971e-08 -9.326670e-09
1.2825         -1.258821e-06 -1.836009e-07 -9.210493e-09 -1.092430e-06 -1.259274e-07 2.188733e-18 -1.663910e-07 -5.767346e-08 -9.210493e-09
1.29           -1.247370e-06 -1.825327e-07 -9.097530e-09 -1.084992e-06 -1.253317e-07 2.574980e-18 -1.623786e-07 -5.720099e-08 -9.097530e-09
1.2975         -1.222119e-06 -1.814512e-07 -8.985915e-09 -1.063961e-06 -1.247083e-07 2.547875e-18 -1.581582e-07 -5.674291e-08 -8.985915e-09
1.305          -1.206245e-06 -1.789387e-07 -8.875335e-09 -1.052021e-06 -1.226740e-07 2.669848e-18 -1.542236e-07 -5.626464e-08 -8.875335e-09
1.3125         -1.182076e-06 -1.772424e-07 -8.766309e-09 -1.031905e-06 -1.214533e-07 2.120970e-18 -1.501711e-07 -5.578903e-08 -8.766309e-09
1.32           -1.172071e-06 -1.765411e-07 -8.658972e-09 -1.025782e-06 -1.211952e-07 2.547875e-18 -1.462886e-07 -5.534589e-08 -8.658972e-09
1.3275         -1.169483e-06 -1.758984e-07 -8.552663e-09 -1.026639e-06 -1.209922e-07 2.283601e-18 -1.428440e-07 -5.490627e-08 -8.552663e-09
1.335          -1.150913e-06 -1.736888e-07 -8.448254e-09 -1.011768e-06 -1.192465e-07 3.042542e-18 -1.391448e-07 -5.444227e-08 -8.448254e-09
1.3425         -1.138625e-06 -1.733102e-07 -8.344677e-09 -1.003161e-06 -1.192951e-07 1.910906e-18 -1.354637e-07 -5.401506e-08 -8.344677e-09
1.35           -1.117165e-06 -1.706504e-07 -8.242462e-09 -9.853845e-07 -1.170985e-07 1.402687e-18 -1.317805e-07 -5.355190e-08 -8.242462e-09
1.3575         -1.101101e-06 -1.696642e-07 -8.141157e-09 -9.727897e-07 -1.165454e-07 1.775381e-18 -1.283112e-07 -5.311886e-08 -8.141157e-09
1.365          -1.090693e-06 -1.693852e-07 -8.041194e-09 -9.657474e-07 -1.166853e-07 2.371692e-18 -1.249460e-07 -5.269999e-08 -8.041194e-09
1.3725         -1.075905e-06 -1.671556e-07 -7.942587e-09 -9.544876e-07 -1.148828e-07 1.727947e-18 -1.214175e-07 -5.227286e-08 -7.942587e-09
1.38           -1.075402e-06 -1.663533e-07 -7.844187e-09 -9.572066e-07 -1.145135e-07 1.788934e-18 -1.181951e-07 -5.183980e-08 -7.844187e-09
1.3875         -1.060303e-06 -1.651707e-07 -7.748299e-09 -9.453586e-07 -1.137549e-07 1.816039e-18 -1.149448e-07 -5.141577e-08 -7.748299e-09
1.395          -1.043283e-06 -1.630628e-07 -7.653764e-09 -9.316509e-07 -1.120705e-07 1.863472e-18 -1.116323e-07 -5.099231e-08 -7.653764e-09
1.4025         -1.040325e-06 -1.635219e-07 -7.561615e-09 -9.316965e-07 -1.129306e-07 1.843144e-18 -1.086284e-07 -5.059132e-08 -7.561615e-09
1.41           -1.014775e-06 -1.615063e-07 -7.469635e-09 -9.094244e-07 -1.113297e-07 2.710505e-18 -1.053509e-07 -5.017660e-08 -7.469635e-09
1.4175         -1.002178e-06 -1.602982e-07 -7.377782e-09 -9.000266e-07 -1.105251e-07 1.511107e-18 -1.021519e-07 -4.977306e-08 -7.377782e-09
1.425          -9.958463e-07 -1.589736e-07 -7.287059e-09 -8.966573e-07 -1.096094e-07 1.619527e-18 -9.918898e-08 -4.936424e-08 -7.287059e-09
1.4325         -9.841593e-07 -1.580621e-07 -7.197838e-09 -8.879846e-07 -1.090876e-07 1.104531e-18 -9.617473e-08 -4.897454e-08 -7.197838e-09
1.44           -9.792461e-07 -1.576590e-07 -7.109604e-09 -8.857982e-07 -1.090776e-07 1.619527e-18 -9.344791e-08 -4.858135e-08 -7.109604e-09
1.4475         -9.666586e-07 -1.557052e-07 -7.022078e-09 -8.761205e-07 -1.075211e-07 1.301043e-18 -9.053811e-08 -4.818408e-08 -7.022078e-09
1.455          -9.469753e-07 -1.546077e-07 -6.935676e-09 -8.593807e-07 -1.068192e-07 1.802486e-18 -8.759457e-08 -4.778852e-08 -6.935676e-09
1.4625         -9.396646e-07 -1.538869e-07 -6.850518e-09 -8.547625e-07 -1.064650e-07 1.511107e-18 -8.490211e-08 -4.742182e-08 -6.850518e-09
1.47           -9.213286e-07 -1.517289e-07 -6.765865e-09 -8.394178e-07 -1.047144e-07 2.195509e-18 -8.191078e-08 -4.701442e-08 -6.765865e-09
1.4775         -9.094172e-07 -1.510852e-07 -6.682472e-09 -8.303593e-07 -1.044544e-07 1.938011e-18 -7.905791e-08 -4.663075e-08 -6.682472e-09
1.485          -8.990093e-07 -1.504405e-07 -6.600450e-09 -8.226093e-07 -1.041798e-07 1.592422e-18 -7.639999e-08 -4.626077e-08 -6.600450e-09
1.4925         -8.947275e-07 -1.491813e-07 -6.519783e-09 -8.208833e-07 -1.032888e-07 1.267161e-18 -7.384411e-08 -4.589253e-08 -6.519783e-09
1.5            -8.818028e-07 -1.483368e-07 -6.438627e-09 -8.105789e-07 -1.028005e-07 1.605974e-18 -7.122395e-08 -4.553632e-08 -6.438627e-09
1.5075         -8.649895e-07 -1.462377e-07 -6.358638e-09 -7.965117e-07 -1.010920e-07 2.378469e-18 -6.847779e-08 -4.514565e-08 -6.358638e-09
1.515          -8.502990e-07 -1.465605e-07 -6.280525e-09 -7.844483e-07 -1.017584e-07 2.087089e-18 -6.585071e-08 -4.480205e-08 -6.280525e-09
1.5225         -8.434050e-07 -1.448808e-07 -6.203192e-09 -7.799941e-07 -1.004391e-07 2.419126e-18 -6.341094e-08 -4.444170e-08 -6.203192e-09
1.53           -8.442567e-07 -1.440273e-07 -6.126603e-09 -7.830238e-07 -9.994630e-08 2.141299e-18 -6.123284e-08 -4.408101e-08 -6.126603e-09
1.5375         -8.236653e-07 -1.430332e-07 -6.050652e-09 -7.649896e-07 -9.929509e-08 1.978669e-18 -5.867569e-08 -4.373813e-08 -6.050652e-09
1.545          -8.188672e-07 -1.424734e-07 -5.976058e-09 -7.625307e-07 -9.907589e-08 2.039655e-18 -5.633650e-08 -4.339747e-08 -5.976058e-09
1.5525         -8.108320e-07 -1.409706e-07 -5.902000e-09 -7.567485e-07 -9.792567e-08 2.080313e-18 -5.408347e-08 -4.304496e-08 -5.902000e-09
1.56           -7.914886e-07 -1.404642e-07 -5.828664e-09 -7.399128e-07 -9.775281e-08 1.951564e-18 -5.157576e-08 -4.271143e-08 -5.828664e-09
1.5675         -7.884848e-07 -1.389107e-07 -5.756782e-09 -7.391198e-07 -9.653994e-08 7.386127e-19 -4.936498e-08 -4.237078e-08 -5.756782e-09
1.575          -7.305303e-07 -1.504809e-07 -5.681708e-09 -6.835339e-07 -1.085027e-07 1.002887e-18 -4.699637e-08 -4.197824e-08 -5.681708e-09
1.5825         -7.288352e-07 -1.497623e-07 -5.608774e-09 -6.836015e-07 -1.082473e-07 1.558541e-18 -4.523365e-08 -4.151501e-08 -5.608774e-09
1.59           -7.165742e-07 -1.482940e-07 -5.538751e-09 -6.731665e-07 -1.072327e-07 1.287490e-18 -4.340766e-08 -4.106124e-08 -5.538751e-09
1.5975         -6.962354e-07 -1.461741e-07 -5.469606e-09 -6.549746e-07 -1.055595e-07 1.355253e-18 -4.126074e-08 -4.061462e-08 -5.469606e-09