# Force       
# CofR        : (0.000000e+00 0.000000e+00 0.000000e+00)
#
# Time        	total_x total_y total_z	pressure_x pressure_y pressure_z	viscous_x viscous_y viscous_z
0.0075         -3.119755e-05 -2.478927e-04 6.689447e+01 -2.554636e-05 -2.421486e-04 6.364841e+01 -5.651195e-06 -5.744076e-06 3.246055e+00
0.015          1.657547e-04 4.107013e-04 -2.088584e+01 1.445477e-04 6.441741e-04 -2.114466e+01 2.120698e-05 -2.334728e-04 2.588294e-01
0.0225         -1.839692e-04 -7.525470e-04 1.267103e+01 -1.583961e-04 -6.181139e-04 1.089277e+01 -2.557312e-05 -1.344331e-04 1.778264e+00
0.03           1.823096e-04 7.343495e-04 2.005607e+00 1.630838e-04 8.696669e-04 8.049271e-01 1.922578e-05 -1.353174e-04 1.200680e+00
0.0375         9.259879e-05 -5.624078e-04 5.644388e+00 1.026627e-04 -3.725675e-04 4.485847e+00 -1.006394e-05 -1.898402e-04 1.158541e+00
0.045          -9.399323e-05 1.077213e-04 3.308328e+00 -8.262846e-05 2.651728e-04 2.210820e+00 -1.136477e-05 -1.574515e-04 1.097508e+00
0.0525         3.676962e-04 -4.384607e-04 4.461224e+00 3.559145e-04 -2.637555e-04 3.433472e+00 1.178177e-05 -1.747052e-04 1.027752e+00
0.06           -9.178846e-05 2.527854e-05 3.263967e+00 -8.388884e-05 1.870003e-04 2.276215e+00 -7.899623e-06 -1.617218e-04 9.877519e-01
0.0675         2.695363e-04 -3.560509e-04 3.886819e+00 2.594358e-04 -1.815532e-04 2.943949e+00 1.010052e-05 -1.744977e-04 9.428698e-01
0.075          -5.674104e-05 -2.715940e-05 3.149803e+00 -5.769503e-05 1.331342e-04 2.237156e+00 9.539935e-07 -1.602936e-04 9.126467e-01
0.0825         2.162125e-04 -2.453193e-04 3.487706e+00 2.043313e-04 -8.140077e-05 2.601688e+00 1.188122e-05 -1.639185e-04 8.860184e-01
0.09           -3.419367e-05 -6.591271e-05 3.042481e+00 -4.076541e-05 8.602261e-05 2.174158e+00 6.571735e-06 -1.519353e-04 8.683235e-01
0.0975         1.385766e-04 -2.143865e-04 3.263678e+00 1.252290e-04 -6.048457e-05 2.416156e+00 1.334757e-05 -1.539019e-04 8.475226e-01
0.105          -1.206848e-05 -8.111661e-05 2.963505e+00 -2.201871e-05 6.696097e-05 2.132119e+00 9.950229e-06 -1.480776e-04 8.313864e-01
0.1125         4.944881e-05 -1.524935e-04 3.080172e+00 3.798658e-05 -4.896899e-06 2.265936e+00 1.146223e-05 -1.475966e-04 8.142356e-01
0.12           2.512402e-06 -9.692396e-05 2.886021e+00 -8.133700e-06 4.696552e-05 2.085837e+00 1.064610e-05 -1.438895e-04 8.001847e-01
0.1275         3.534525e-05 -1.362605e-04 2.942960e+00 2.493804e-05 6.497812e-06 2.157188e+00 1.040721e-05 -1.427583e-04 7.857721e-01
0.135          6.152801e-06 -1.027888e-04 2.811609e+00 -2.967854e-06 3.719617e-05 2.038151e+00 9.120656e-06 -1.399850e-04 7.734576e-01
0.1425         2.618409e-05 -1.267352e-04 2.833450e+00 1.715415e-05 1.243964e-05 2.072321e+00 9.029947e-06 -1.391748e-04 7.611289e-01
0.15           6.459045e-06 -1.106015e-04 2.742256e+00 -1.488900e-06 2.660189e-05 1.991989e+00 7.947945e-06 -1.372034e-04 7.502674e-01
0.1575         1.324416e-05 -1.178252e-04 2.743439e+00 5.415599e-06 1.870177e-05 2.003874e+00 7.828564e-06 -1.365269e-04 7.395646e-01
0.165          7.551641e-06 -1.118634e-04 2.677461e+00 2.562641e-07 2.348507e-05 1.947539e+00 7.295376e-06 -1.353484e-04 7.299220e-01
0.1725         1.083762e-05 -1.158549e-04 2.667866e+00 3.856988e-06 1.871055e-05 1.947345e+00 6.980631e-06 -1.345654e-04 7.205212e-01
0.18           7.309714e-06 -1.122151e-04 2.618095e+00 7.930929e-07 2.128477e-05 1.906197e+00 6.516622e-06 -1.334999e-04 7.118979e-01
0.1875         9.192070e-06 -1.144966e-04 2.602894e+00 2.908098e-06 1.826058e-05 1.899340e+00 6.283972e-06 -1.327572e-04 7.035533e-01
0.195          7.015117e-06 -1.123527e-04 2.563872e+00 1.073526e-06 1.951377e-05 1.868072e+00 5.941592e-06 -1.318665e-04 6.957996e-01
0.2025         8.086046e-06 -1.136431e-04 2.546105e+00 2.320169e-06 1.753074e-05 1.857777e+00 5.765877e-06 -1.311739e-04 6.883277e-01
0.21           6.712196e-06 -1.123678e-04 2.514378e+00 1.201275e-06 1.803258e-05 1.833061e+00 5.510921e-06 -1.304004e-04 6.813170e-01
0.2175         7.279895e-06 -1.130569e-04 2.495803e+00 1.921940e-06 1.668483e-05 1.821227e+00 5.357955e-06 -1.297417e-04 6.745752e-01
0.225          6.410906e-06 -1.123011e-04 2.469160e+00 1.248197e-06 1.675355e-05 1.800955e+00 5.162709e-06 -1.290547e-04 6.682043e-01
0.2325         6.691766e-06 -1.127136e-04 2.450749e+00 1.658073e-06 1.573585e-05 1.788666e+00 5.033693e-06 -1.284495e-04 6.620823e-01
0.24           6.156476e-06 -1.121427e-04 2.427782e+00 1.263610e-06 1.564669e-05 1.771516e+00 4.892866e-06 -1.277894e-04 6.562652e-01
0.2475         6.251472e-06 -1.118729e-04 2.409827e+00 1.475521e-06 1.453219e-05 1.759176e+00 4.775951e-06 -1.264051e-04 6.506506e-01
0.255          5.857981e-06 -1.106447e-04 2.389420e+00 1.201210e-06 1.431147e-05 1.744138e+00 4.656771e-06 -1.249562e-04 6.452814e-01
0.2625         5.885456e-06 -1.099952e-04 2.372593e+00 1.332062e-06 1.382227e-05 1.732453e+00 4.553394e-06 -1.238174e-04 6.401398e-01
0.27           5.614835e-06 -1.092868e-04 2.354536e+00 1.167694e-06 1.354207e-05 1.719311e+00 4.447141e-06 -1.228289e-04 6.352246e-01
0.2775         5.582642e-06 -1.088446e-04 2.338704e+00 1.224329e-06 1.308972e-05 1.708208e+00 4.358312e-06 -1.219343e-04 6.304957e-01
0.285          5.382475e-06 -1.083285e-04 2.322348e+00 1.116010e-06 1.278129e-05 1.696391e+00 4.266465e-06 -1.211098e-04 6.259574e-01
0.2925         5.350358e-06 -1.079573e-04 2.307514e+00 1.155019e-06 1.237996e-05 1.685929e+00 4.195338e-06 -1.203373e-04 6.215853e-01
0.3            5.189043e-06 -1.075825e-04 2.292555e+00 1.070714e-06 1.203474e-05 1.675177e+00 4.118329e-06 -1.196172e-04 6.173786e-01
0.3075         5.143961e-06 -1.072943e-04 2.278678e+00 1.089350e-06 1.164539e-05 1.665357e+00 4.054611e-06 -1.189397e-04 6.133208e-01
0.315          5.021675e-06 -1.069824e-04 2.264895e+00 1.031343e-06 1.131158e-05 1.655486e+00 3.990332e-06 -1.182939e-04 6.094087e-01
0.3225         4.969054e-06 -1.067214e-04 2.251913e+00 1.035109e-06 1.094933e-05 1.646282e+00 3.933946e-06 -1.176707e-04 6.056304e-01
0.33           4.874773e-06 -1.064812e-04 2.239141e+00 9.950928e-07 1.060234e-05 1.637160e+00 3.879680e-06 -1.170836e-04 6.019817e-01
0.3375         4.815445e-06 -1.062593e-04 2.226989e+00 9.869144e-07 1.025305e-05 1.628536e+00 3.828530e-06 -1.165124e-04 5.984532e-01
0.345          4.731775e-06 -1.060564e-04 2.215099e+00 9.547549e-07 9.912212e-06 1.620058e+00 3.777020e-06 -1.159686e-04 5.950408e-01
0.3525         4.688542e-06 -1.058517e-04 2.203708e+00 9.537411e-07 9.585037e-06 1.611971e+00 3.734801e-06 -1.154367e-04 5.917372e-01
0.36           4.617280e-06 -1.056433e-04 2.192599e+00 9.256414e-07 9.272749e-06 1.604061e+00 3.691638e-06 -1.149160e-04 5.885380e-01
0.3675         4.572311e-06 -1.054741e-04 2.181906e+00 9.199827e-07 8.941212e-06 1.596468e+00 3.652329e-06 -1.144153e-04 5.854374e-01
0.375          4.506952e-06 -1.054153e-04 2.171492e+00 8.946687e-07 8.539982e-06 1.589061e+00 3.612283e-06 -1.139553e-04 5.824309e-01
0.3825         4.469624e-06 -1.051453e-04 2.161435e+00 8.915840e-07 8.316456e-06 1.581921e+00 3.578040e-06 -1.134618e-04 5.795143e-01
0.39           4.407101e-06 -1.050023e-04 2.151650e+00 8.663212e-07 7.991588e-06 1.574966e+00 3.540779e-06 -1.129939e-04 5.766835e-01
0.3975         4.374204e-06 -1.048696e-04 2.142175e+00 8.652192e-07 7.674932e-06 1.568240e+00 3.508985e-06 -1.125445e-04 5.739343e-01
0.405          4.327778e-06 -1.047022e-04 2.132957e+00 8.495767e-07 7.391286e-06 1.561694e+00 3.478201e-06 -1.120935e-04 5.712635e-01
0.4125         4.285513e-06 -1.045630e-04 2.124014e+00 8.389391e-07 7.094162e-06 1.555347e+00 3.446574e-06 -1.116571e-04 5.686674e-01
0.42           4.242783e-06 -1.043992e-04 2.115313e+00 8.267635e-07 6.819143e-06 1.549170e+00 3.416020e-06 -1.112184e-04 5.661429e-01
0.4275         4.201328e-06 -1.042626e-04 2.106858e+00 8.158587e-07 6.531678e-06 1.543171e+00 3.385469e-06 -1.107943e-04 5.636869e-01
0.435          4.167062e-06 -1.041016e-04 2.098629e+00 8.089815e-07 6.267146e-06 1.537332e+00 3.358081e-06 -1.103687e-04 5.612967e-01
0.4425         4.131619e-06 -1.039627e-04 2.090624e+00 7.999786e-07 5.988330e-06 1.531654e+00 3.331640e-06 -1.099510e-04 5.589693e-01
0.45           4.097302e-06 -1.038062e-04 2.082826e+00 7.918839e-07 5.731610e-06 1.526124e+00 3.305418e-06 -1.095378e-04 5.567025e-01
0.4575         4.064474e-06 -1.036749e-04 2.075234e+00 7.840530e-07 5.458804e-06 1.520740e+00 3.280421e-06 -1.091337e-04 5.544938e-01
0.465          4.032124e-06 -1.035036e-04 2.067834e+00 7.762265e-07 5.222363e-06 1.515493e+00 3.255897e-06 -1.087260e-04 5.523409e-01
0.4725         3.995887e-06 -1.033673e-04 2.060623e+00 7.656800e-07 4.958874e-06 1.510382e+00 3.230207e-06 -1.083262e-04 5.502417e-01
0.48           3.968206e-06 -1.031987e-04 2.053590e+00 7.616275e-07 4.728255e-06 1.505396e+00 3.206578e-06 -1.079270e-04 5.481941e-01
0.4875         3.936030e-06 -1.030455e-04 2.046732e+00 7.528565e-07 4.484435e-06 1.500536e+00 3.183174e-06 -1.075299e-04 5.461962e-01
0.495          3.907462e-06 -1.028969e-04 2.040037e+00 7.473757e-07 4.244134e-06 1.495791e+00 3.160086e-06 -1.071410e-04 5.442461e-01
0.5025         3.871583e-06 -1.027139e-04 2.033506e+00 7.362555e-07 4.031622e-06 1.491164e+00 3.135328e-06 -1.067455e-04 5.423421e-01
0.51           3.849558e-06 -1.025579e-04 2.027126e+00 7.360267e-07 3.798336e-06 1.486644e+00 3.113531e-06 -1.063562e-04 5.404827e-01
0.5175         3.817331e-06 -1.023921e-04 2.020898e+00 7.265379e-07 3.579242e-06 1.482232e+00 3.090793e-06 -1.059713e-04 5.386661e-01
0.525          3.794073e-06 -1.022106e-04 2.014811e+00 7.242163e-07 3.374387e-06 1.477920e+00 3.069857e-06 -1.055850e-04 5.368908e-01
0.5325         3.768472e-06 -1.020327e-04 2.008864e+00 7.192344e-07 3.165341e-06 1.473708e+00 3.049237e-06 -1.051980e-04 5.351556e-01
0.54           3.757533e-06 -1.017395e-04 2.002913e+00 7.255379e-07 2.664202e-06 1.469474e+00 3.031995e-06 -1.044037e-04 5.334389e-01
0.5475         3.718626e-06 -1.011916e-04 1.997219e+00 7.073030e-07 2.431768e-06 1.465449e+00 3.011323e-06 -1.036233e-04 5.317694e-01
0.555          3.691527e-06 -1.005543e-04 1.991525e+00 6.956395e-07 2.323725e-06 1.461402e+00 2.995887e-06 -1.028780e-04 5.301230e-01
0.5625         3.669747e-06 -1.000787e-04 1.986073e+00 6.923280e-07 2.133987e-06 1.457552e+00 2.977419e-06 -1.022127e-04 5.285218e-01
0.57           3.643015e-06 -9.960448e-05 1.980754e+00 6.862312e-07 2.001672e-06 1.453791e+00 2.956784e-06 -1.016061e-04 5.269624e-01
0.5775         3.615408e-06 -9.920111e-05 1.975546e+00 6.797294e-07 1.834936e-06 1.450109e+00 2.935679e-06 -1.010360e-04 5.254367e-01
0.585          3.592769e-06 -9.879038e-05 1.970452e+00 6.773513e-07 1.698212e-06 1.446508e+00 2.915418e-06 -1.004886e-04 5.239444e-01
0.5925         3.570160e-06 -9.842384e-05 1.965464e+00 6.748019e-07 1.539945e-06 1.442980e+00 2.895358e-06 -9.996379e-05 5.224836e-01
0.6            3.539929e-06 -9.805554e-05 1.960578e+00 6.669872e-07 1.401251e-06 1.439525e+00 2.872941e-06 -9.945679e-05 5.210531e-01
0.6075         3.521587e-06 -9.770289e-05 1.955792e+00 6.680166e-07 1.257120e-06 1.436140e+00 2.853571e-06 -9.896001e-05 5.196518e-01
0.615          3.495029e-06 -9.736599e-05 1.951103e+00 6.620999e-07 1.113947e-06 1.432824e+00 2.832929e-06 -9.847994e-05 5.182788e-01
0.6225         3.474264e-06 -9.704086e-05 1.946506e+00 6.610029e-07 9.709426e-07 1.429573e+00 2.813261e-06 -9.801181e-05 5.169331e-01
0.63           3.444762e-06 -9.672739e-05 1.941999e+00 6.531859e-07 8.278352e-07 1.426385e+00 2.791576e-06 -9.755522e-05 5.156138e-01
0.6375         3.425953e-06 -9.639738e-05 1.937580e+00 6.541050e-07 7.039586e-07 1.423259e+00 2.771848e-06 -9.710134e-05 5.143203e-01
0.645          3.398858e-06 -9.611077e-05 1.933246e+00 6.475784e-07 5.524977e-07 1.420194e+00 2.751280e-06 -9.666326e-05 5.130516e-01
0.6525         3.377086e-06 -9.581109e-05 1.928993e+00 6.458656e-07 4.222548e-07 1.417186e+00 2.731221e-06 -9.623335e-05 5.118071e-01
0.66           3.355283e-06 -9.549646e-05 1.924822e+00 6.436467e-07 3.061617e-07 1.414236e+00 2.711636e-06 -9.580262e-05 5.105861e-01
0.6675         3.330484e-06 -9.523039e-05 1.920727e+00 6.389567e-07 1.558702e-07 1.411339e+00 2.691527e-06 -9.538626e-05 5.093878e-01
0.675          3.313465e-06 -9.493610e-05 1.916709e+00 6.401928e-07 3.713320e-08 1.408497e+00 2.673272e-06 -9.497323e-05 5.082116e-01
0.6825         3.285001e-06 -9.465416e-05 1.912763e+00 6.319048e-07 -8.925040e-08 1.405706e+00 2.653096e-06 -9.456490e-05 5.070570e-01
0.69           3.268150e-06 -9.435614e-05 1.908889e+00 6.335417e-07 -1.986729e-07 1.402966e+00 2.634609e-06 -9.415747e-05 5.059233e-01
0.6975         3.244087e-06 -9.410413e-05 1.905084e+00 6.283814e-07 -3.422571e-07 1.400274e+00 2.615705e-06 -9.376187e-05 5.048100e-01
0.705          3.223299e-06 -9.380522e-05 1.901347e+00 6.264046e-07 -4.402819e-07 1.397631e+00 2.596895e-06 -9.336493e-05 5.037165e-01
0.7125         3.199542e-06 -9.354897e-05 1.897675e+00 6.218386e-07 -5.734438e-07 1.395033e+00 2.577703e-06 -9.297552e-05 5.026423e-01
0.72           3.183000e-06 -9.326365e-05 1.894068e+00 6.228065e-07 -6.754718e-07 1.392481e+00 2.560194e-06 -9.258818e-05 5.015869e-01
0.7275         3.159463e-06 -9.300724e-05 1.890523e+00 6.175250e-07 -8.018388e-07 1.389973e+00 2.541938e-06 -9.220540e-05 5.005497e-01
0.735          3.139674e-06 -9.272902e-05 1.887038e+00 6.159323e-07 -9.034809e-07 1.387508e+00 2.523741e-06 -9.182554e-05 4.995304e-01
0.7425         3.116520e-06 -9.246165e-05 1.883613e+00 6.112670e-07 -1.013524e-06 1.385085e+00 2.505253e-06 -9.144813e-05 4.985284e-01
0.75           3.101102e-06 -9.219785e-05 1.880245e+00 6.126674e-07 -1.123375e-06 1.382702e+00 2.488434e-06 -9.107448e-05 4.975433e-01
0.7575         3.076254e-06 -9.192176e-05 1.876934e+00 6.060025e-07 -1.220633e-06 1.380359e+00 2.470251e-06 -9.070112e-05 4.965747e-01
0.765          3.061873e-06 -9.163165e-05 1.873677e+00 6.081632e-07 -1.307585e-06 1.378054e+00 2.453709e-06 -9.032407e-05 4.956222e-01
0.7725         3.038919e-06 -9.136300e-05 1.870473e+00 6.025248e-07 -1.413467e-06 1.375788e+00 2.436394e-06 -8.994954e-05 4.946854e-01
0.78           3.021717e-06 -9.103311e-05 1.867322e+00 6.019639e-07 -1.471537e-06 1.373558e+00 2.419753e-06 -8.956157e-05 4.937640e-01
0.7875         3.001195e-06 -9.110558e-05 1.864221e+00 5.982732e-07 -1.815434e-06 1.371363e+00 2.402921e-06 -8.929015e-05 4.928574e-01
0.795          2.984527e-06 -9.052632e-05 1.861170e+00 5.978127e-07 -1.635665e-06 1.369204e+00 2.386714e-06 -8.889066e-05 4.919654e-01
0.8025         2.961988e-06 -9.039397e-05 1.858167e+00 5.922362e-07 -1.855152e-06 1.367079e+00 2.369751e-06 -8.853882e-05 4.910877e-01
0.81           2.948963e-06 -9.028765e-05 1.855212e+00 5.945379e-07 -2.037992e-06 1.364988e+00 2.354425e-06 -8.824965e-05 4.902238e-01
0.8175         2.924025e-06 -8.966976e-05 1.852302e+00 5.868030e-07 -1.848545e-06 1.362929e+00 2.337222e-06 -8.782121e-05 4.893735e-01
0.825          2.909321e-06 -8.959854e-05 1.849438e+00 5.876711e-07 -2.118640e-06 1.360901e+00 2.321650e-06 -8.747990e-05 4.885365e-01
0.8325         2.886108e-06 -8.927698e-05 1.846618e+00 5.818987e-07 -2.147701e-06 1.358905e+00 2.304209e-06 -8.712928e-05 4.877124e-01
0.84           2.871850e-06 -8.901432e-05 1.843840e+00 5.828101e-07 -2.241560e-06 1.356939e+00 2.289040e-06 -8.677276e-05 4.869010e-01
0.8475         2.852276e-06 -8.877698e-05 1.841105e+00 5.791439e-07 -2.345237e-06 1.355003e+00 2.273132e-06 -8.643174e-05 4.861020e-01
0.855          2.833836e-06 -8.848707e-05 1.838411e+00 5.765237e-07 -2.404197e-06 1.353096e+00 2.257312e-06 -8.608288e-05 4.853151e-01
0.8625         2.817634e-06 -8.823522e-05 1.835757e+00 5.754502e-07 -2.496316e-06 1.351217e+00 2.242184e-06 -8.573890e-05 4.845400e-01
0.87           2.797696e-06 -8.795624e-05 1.833142e+00 5.713754e-07 -2.562280e-06 1.349365e+00 2.226321e-06 -8.539396e-05 4.837765e-01
0.8775         2.783959e-06 -8.769418e-05 1.830566e+00 5.719369e-07 -2.643631e-06 1.347542e+00 2.212022e-06 -8.505055e-05 4.830242e-01
0.885          2.761455e-06 -8.743184e-05 1.828027e+00 5.655871e-07 -2.720660e-06 1.345744e+00 2.195868e-06 -8.471118e-05 4.822831e-01
0.8925         2.749152e-06 -8.715894e-05 1.825525e+00 5.675211e-07 -2.787779e-06 1.343972e+00 2.181631e-06 -8.437117e-05 4.815528e-01
0.9            2.729047e-06 -8.688854e-05 1.823059e+00 5.623530e-07 -2.857391e-06 1.342226e+00 2.166694e-06 -8.403115e-05 4.808330e-01
0.9075         2.713212e-06 -8.661672e-05 1.820627e+00 5.614371e-07 -2.923755e-06 1.340504e+00 2.151775e-06 -8.369297e-05 4.801237e-01
0.915          2.697330e-06 -8.635190e-05 1.818231e+00 5.596133e-07 -2.995352e-06 1.338806e+00 2.137717e-06 -8.335655e-05 4.794245e-01
0.9225         2.678778e-06 -8.608341e-05 1.815868e+00 5.559581e-07 -3.060927e-06 1.337133e+00 2.122820e-06 -8.302249e-05 4.787352e-01
0.93           2.664834e-06 -8.580174e-05 1.813538e+00 5.557154e-07 -3.117794e-06 1.335482e+00 2.109119e-06 -8.268394e-05 4.780557e-01
0.9375         2.648322e-06 -8.553616e-05 1.811240e+00 5.531112e-07 -3.184301e-06 1.333855e+00 2.095211e-06 -8.235186e-05 4.773858e-01
0.945          2.631027e-06 -8.526619e-05 1.808975e+00 5.499393e-07 -3.246785e-06 1.332250e+00 2.081088e-06 -8.201940e-05 4.767251e-01
0.9525         2.614441e-06 -8.499814e-05 1.806740e+00 5.475180e-07 -3.308664e-06 1.330666e+00 2.066922e-06 -8.168948e-05 4.760736e-01
0.96           2.597434e-06 -8.470954e-05 1.804535e+00 5.448069e-07 -3.354108e-06 1.329104e+00 2.052627e-06 -8.135543e-05 4.754311e-01
0.9675         2.585640e-06 -8.446233e-05 1.802360e+00 5.457769e-07 -3.431889e-06 1.327563e+00 2.039864e-06 -8.103045e-05 4.747974e-01
0.975          2.566336e-06 -8.418638e-05 1.800215e+00 5.403009e-07 -3.481748e-06 1.326043e+00 2.026036e-06 -8.070463e-05 4.741723e-01
0.9825         2.554252e-06 -8.388991e-05 1.798098e+00 5.411767e-07 -3.517950e-06 1.324542e+00 2.013075e-06 -8.037196e-05 4.735556e-01
0.99           2.536570e-06 -8.364616e-05 1.796009e+00 5.368500e-07 -3.596182e-06 1.323061e+00 1.999720e-06 -8.004998e-05 4.729472e-01
0.9975         2.520982e-06 -8.334392e-05 1.793947e+00 5.347468e-07 -3.622601e-06 1.321600e+00 1.986235e-06 -7.972132e-05 4.723470e-01
1.005          2.506580e-06 -8.307997e-05 1.791913e+00 5.332787e-07 -3.684338e-06 1.320158e+00 1.973301e-06 -7.939563e-05 4.717547e-01
1.0125         2.490501e-06 -8.279189e-05 1.789905e+00 5.303831e-07 -3.722518e-06 1.318735e+00 1.960118e-06 -7.906937e-05 4.711702e-01
1.02           2.476544e-06 -8.252629e-05 1.787922e+00 5.290522e-07 -3.780015e-06 1.317329e+00 1.947492e-06 -7.874627e-05 4.705933e-01
1.0275         2.459398e-06 -8.224419e-05 1.785966e+00 5.252497e-07 -3.820587e-06 1.315942e+00 1.934149e-06 -7.842360e-05 4.700239e-01
1.035          2.445834e-06 -8.195771e-05 1.784034e+00 5.243779e-07 -3.859205e-06 1.314572e+00 1.921456e-06 -7.809851e-05 4.694620e-01
1.0425         2.430720e-06 -8.170060e-05 1.782127e+00 5.218213e-07 -3.919912e-06 1.313219e+00 1.908899e-06 -7.778069e-05 4.689073e-01
1.05           2.416226e-06 -8.140234e-05 1.780243e+00 5.198312e-07 -3.943593e-06 1.311884e+00 1.896395e-06 -7.745875e-05 4.683597e-01
1.0575         2.401504e-06 -8.113190e-05 1.778384e+00 5.175946e-07 -3.993274e-06 1.310565e+00 1.883910e-06 -7.713862e-05 4.678190e-01
1.065          2.387783e-06 -8.084782e-05 1.776547e+00 5.159422e-07 -4.028762e-06 1.309262e+00 1.871841e-06 -7.681906e-05 4.672852e-01
1.0725         2.373071e-06 -8.056970e-05 1.774733e+00 5.134309e-07 -4.069185e-06 1.307975e+00 1.859640e-06 -7.650051e-05 4.667581e-01
1.08           2.359274e-06 -8.028935e-05 1.772942e+00 5.115623e-07 -4.106204e-06 1.306704e+00 1.847712e-06 -7.618315e-05 4.662376e-01
1.0875         2.342643e-06 -8.000143e-05 1.771172e+00 5.077216e-07 -4.136675e-06 1.305448e+00 1.834922e-06 -7.586476e-05 4.657235e-01
1.095          2.329580e-06 -7.974652e-05 1.769424e+00 5.068017e-07 -4.193125e-06 1.304208e+00 1.822779e-06 -7.555339e-05 4.652159e-01
1.1025         2.315743e-06 -7.943650e-05 1.767696e+00 5.046641e-07 -4.200899e-06 1.302982e+00 1.811079e-06 -7.523560e-05 4.647145e-01
1.11           2.302927e-06 -7.915393e-05 1.765991e+00 5.032945e-07 -4.237517e-06 1.301771e+00 1.799633e-06 -7.491641e-05 4.642192e-01
1.1175         2.287096e-06 -7.888857e-05 1.764304e+00 4.995732e-07 -4.282685e-06 1.300574e+00 1.787523e-06 -7.460588e-05 4.637299e-01
1.125          2.275320e-06 -7.861377e-05 1.762639e+00 4.991388e-07 -4.316834e-06 1.299392e+00 1.776181e-06 -7.429694e-05 4.632466e-01
1.1325         2.259416e-06 -7.829044e-05 1.760992e+00 4.952345e-07 -4.316258e-06 1.298223e+00 1.764182e-06 -7.397418e-05 4.627691e-01
1.14           2.248250e-06 -7.803438e-05 1.759365e+00 4.950949e-07 -4.367274e-06 1.297068e+00 1.753155e-06 -7.366711e-05 4.622973e-01
1.1475         2.234191e-06 -7.775331e-05 1.757758e+00 4.921275e-07 -4.396059e-06 1.295927e+00 1.742064e-06 -7.335725e-05 4.618311e-01
1.155          2.219866e-06 -7.746530e-05 1.756168e+00 4.895693e-07 -4.418436e-06 1.294798e+00 1.730297e-06 -7.304686e-05 4.613704e-01
1.1625         2.210739e-06 -7.722052e-05 1.754531e+00 4.908290e-07 -4.627942e-06 1.293629e+00 1.719910e-06 -7.259258e-05 4.609019e-01
1.17           2.192637e-06 -7.683653e-05 1.752964e+00 4.835960e-07 -4.687864e-06 1.292520e+00 1.709041e-06 -7.214866e-05 4.604444e-01
1.1775         2.179059e-06 -7.644196e-05 1.751424e+00 4.813196e-07 -4.694001e-06 1.291427e+00 1.697740e-06 -7.174796e-05 4.599968e-01
1.185          2.166805e-06 -7.601597e-05 1.749838e+00 4.748607e-07 -4.710963e-06 1.290297e+00 1.691945e-06 -7.130500e-05 4.595415e-01
1.1925         2.156554e-06 -7.559103e-05 1.748321e+00 4.722022e-07 -4.708971e-06 1.289223e+00 1.684352e-06 -7.088206e-05 4.590978e-01
1.2            2.146063e-06 -7.521940e-05 1.746831e+00 4.698259e-07 -4.729779e-06 1.288167e+00 1.676237e-06 -7.048962e-05 4.586641e-01
1.2075         2.135253e-06 -7.484566e-05 1.745360e+00 4.674286e-07 -4.736468e-06 1.287124e+00 1.667825e-06 -7.010920e-05 4.582359e-01
1.215          2.540028e-06 -7.306924e-05 1.736047e+00 8.594986e-07 -4.581716e-06 1.277782e+00 1.680530e-06 -6.848752e-05 4.582654e-01
1.2225         2.375258e-06 -7.240978e-05 1.737609e+00 6.792744e-07 -4.908487e-06 1.279319e+00 1.695984e-06 -6.750129e-05 4.582895e-01
1.23           2.427251e-06 -7.157562e-05 1.736956e+00 7.211029e-07 -4.782811e-06 1.278742e+00 1.706149e-06 -6.679281e-05 4.582137e-01
1.2375         2.408265e-06 -7.100267e-05 1.736514e+00 7.054174e-07 -4.912227e-06 1.278389e+00 1.702848e-06 -6.609044e-05 4.581242e-01
1.245          2.412775e-06 -7.033761e-05 1.736114e+00 7.146865e-07 -4.898460e-06 1.278100e+00 1.698089e-06 -6.543915e-05 4.580138e-01
1.2525         2.399513e-06 -6.976968e-05 1.735589e+00 7.078916e-07 -4.956691e-06 1.277697e+00 1.691621e-06 -6.481299e-05 4.578924e-01
1.26           2.395787e-06 -6.919873e-05 1.735130e+00 7.111200e-07 -4.984340e-06 1.277368e+00 1.684667e-06 -6.421439e-05 4.577618e-01
1.2675         2.384965e-06 -6.860976e-05 1.734599e+00 7.078530e-07 -4.983837e-06 1.276974e+00 1.677112e-06 -6.362592e-05 4.576248e-01
1.275          2.377917e-06 -6.807323e-05 1.734098e+00 7.083971e-07 -5.019184e-06 1.276616e+00 1.669520e-06 -6.305405e-05 4.574824e-01
1.2825         2.368571e-06 -6.752616e-05 1.733561e+00 7.067262e-07 -5.028740e-06 1.276225e+00 1.661845e-06 -6.249742e-05 4.573358e-01
1.29           2.359908e-06 -6.702414e-05 1.733036e+00 7.059047e-07 -5.065250e-06 1.275850e+00 1.654003e-06 -6.195889e-05 4.571857e-01
1.2975         2.350128e-06 -6.648728e-05 1.732492e+00 7.042811e-07 -5.060405e-06 1.275459e+00 1.645846e-06 -6.142688e-05 4.570327e-01
1.305          2.342013e-06 -6.599126e-05 1.731951e+00 7.039954e-07 -5.085642e-06 1.275074e+00 1.638017e-06 -6.090562e-05 4.568773e-01
1.3125         2.331607e-06 -6.549836e-05 1.731400e+00 7.018567e-07 -5.100537e-06 1.274681e+00 1.629751e-06 -6.039782e-05 4.567198e-01
1.32           2.322291e-06 -6.498855e-05 1.730850e+00 7.009605e-07 -5.096147e-06 1.274290e+00 1.621330e-06 -5.989241e-05 4.565606e-01
1.3275         2.312514e-06 -6.451269e-05 1.730294e+00 6.995427e-07 -5.115759e-06 1.273895e+00 1.612972e-06 -5.939694e-05 4.563998e-01
1.335          2.303843e-06 -6.402745e-05 1.729738e+00 6.990333e-07 -5.118350e-06 1.273500e+00 1.604810e-06 -5.890910e-05 4.562378e-01
1.3425         2.292646e-06 -6.356072e-05 1.729178e+00 6.964722e-07 -5.130836e-06 1.273104e+00 1.596174e-06 -5.842988e-05 4.560747e-01
1.35           2.284052e-06 -6.308913e-05 1.728618e+00 6.962293e-07 -5.132253e-06 1.272707e+00 1.587823e-06 -5.795688e-05 4.559107e-01
1.3575         2.273753e-06 -6.263728e-05 1.728056e+00 6.944076e-07 -5.145038e-06 1.272310e+00 1.579346e-06 -5.749224e-05 4.557458e-01
1.365          2.263933e-06 -6.217161e-05 1.727493e+00 6.931229e-07 -5.139971e-06 1.271913e+00 1.570810e-06 -5.703163e-05 4.555803e-01
1.3725         2.254061e-06 -6.172538e-05 1.726930e+00 6.917760e-07 -5.148269e-06 1.271515e+00 1.562285e-06 -5.657711e-05 4.554143e-01
1.38           2.244544e-06 -6.127989e-05 1.726366e+00 6.907459e-07 -5.150323e-06 1.271118e+00 1.553798e-06 -5.612957e-05 4.552478e-01
1.3875         2.234424e-06 -6.084741e-05 1.725801e+00 6.890598e-07 -5.158071e-06 1.270720e+00 1.545364e-06 -5.568934e-05 4.550809e-01
1.395          2.225151e-06 -6.040190e-05 1.725237e+00 6.881130e-07 -5.149745e-06 1.270323e+00 1.537038e-06 -5.525216e-05 4.549137e-01
1.4025         2.214502e-06 -5.997671e-05 1.724673e+00 6.860281e-07 -5.156482e-06 1.269927e+00 1.528474e-06 -5.482023e-05 4.547462e-01
1.41           2.205211e-06 -5.955259e-05 1.724109e+00 6.851313e-07 -5.157512e-06 1.269530e+00 1.520080e-06 -5.439507e-05 4.545786e-01
1.4175         2.195149e-06 -5.912627e-05 1.723546e+00 6.834292e-07 -5.152719e-06 1.269135e+00 1.511720e-06 -5.397355e-05 4.544109e-01
1.425          2.185734e-06 -5.871999e-05 1.722983e+00 6.823131e-07 -5.161241e-06 1.268739e+00 1.503421e-06 -5.355875e-05 4.542431e-01
1.4325         2.176139e-06 -5.829990e-05 1.722420e+00 6.808977e-07 -5.151852e-06 1.268345e+00 1.495241e-06 -5.314805e-05 4.540754e-01
1.44           2.166698e-06 -5.788153e-05 1.721859e+00 6.795643e-07 -5.143520e-06 1.267951e+00 1.487134e-06 -5.273801e-05 4.539076e-01
1.4475         2.156582e-06 -5.748847e-05 1.721298e+00 6.776859e-07 -5.152327e-06 1.267558e+00 1.478896e-06 -5.233614e-05 4.537399e-01
1.455          2.146942e-06 -5.708614e-05 1.720739e+00 6.763139e-07 -5.147056e-06 1.267166e+00 1.470628e-06 -5.193909e-05 4.535723e-01
1.4625         2.137770e-06 -5.668064e-05 1.720180e+00 6.751613e-07 -5.136617e-06 1.266775e+00 1.462609e-06 -5.154402e-05 4.534049e-01
1.47           2.127927e-06 -5.628439e-05 1.719622e+00 6.733718e-07 -5.132179e-06 1.266384e+00 1.454555e-06 -5.115221e-05 4.532376e-01
1.4775         2.119657e-06 -5.589507e-05 1.719066e+00 6.727266e-07 -5.129627e-06 1.265995e+00 1.446931e-06 -5.076544e-05 4.530706e-01
1.485          2.109552e-06 -5.551474e-05 1.718510e+00 6.705164e-07 -5.129716e-06 1.265607e+00 1.439036e-06 -5.038502e-05 4.529037e-01
1.4925         2.100632e-06 -5.515178e-05 1.717956e+00 6.693775e-07 -5.138244e-06 1.265219e+00 1.431255e-06 -5.001353e-05 4.527371e-01
1.5            2.090797e-06 -5.474768e-05 1.717404e+00 6.673470e-07 -5.110098e-06 1.264833e+00 1.423450e-06 -4.963758e-05 4.525708e-01
1.5075         2.082323e-06 -5.436411e-05 1.716853e+00 6.664689e-07 -5.101205e-06 1.264448e+00 1.415854e-06 -4.926290e-05 4.524048e-01
1.515          2.073341e-06 -5.399958e-05 1.716303e+00 6.648438e-07 -5.103830e-06 1.264063e+00 1.408497e-06 -4.889575e-05 4.522391e-01
1.5225         2.063244e-06 -5.362789e-05 1.715754e+00 6.625779e-07 -5.095291e-06 1.263680e+00 1.400666e-06 -4.853260e-05 4.520737e-01
1.53           2.054757e-06 -5.326429e-05 1.715207e+00 6.616673e-07 -5.090434e-06 1.263299e+00 1.393089e-06 -4.817385e-05 4.519087e-01
1.5375         2.045084e-06 -5.289770e-05 1.714662e+00 6.595666e-07 -5.080579e-06 1.262918e+00 1.385517e-06 -4.781712e-05 4.517440e-01
1.545          2.036774e-06 -5.253413e-05 1.714118e+00 6.585636e-07 -5.070631e-06 1.262538e+00 1.378210e-06 -4.746350e-05 4.515797e-01
1.5525         2.027531e-06 -5.218253e-05 1.713576e+00 6.566586e-07 -5.067877e-06 1.262160e+00 1.370873e-06 -4.711466e-05 4.514158e-01
1.56           2.018834e-06 -5.182596e-05 1.713035e+00 6.552393e-07 -5.056971e-06 1.261783e+00 1.363595e-06 -4.676899e-05 4.512524e-01
1.5675         2.009839e-06 -5.147512e-05 1.712496e+00 6.534661e-07 -5.048890e-06 1.261407e+00 1.356373e-06 -4.642623e-05 4.510893e-01
1.575          2.001370e-06 -5.112382e-05 1.711959e+00 6.521105e-07 -5.037772e-06 1.261032e+00 1.349260e-06 -4.608605e-05 4.509267e-01
1.5825         1.992656e-06 -5.078168e-05 1.711423e+00 6.503827e-07 -5.031783e-06 1.260659e+00 1.342273e-06 -4.574990e-05 4.507645e-01
1.59           1.983801e-06 -5.043580e-05 1.710889e+00 6.485835e-07 -5.019375e-06 1.260287e+00 1.335218e-06 -4.541643e-05 4.506027e-01
1.5975         1.975068e-06 -5.009547e-05 1.710357e+00 6.469161e-07 -5.010060e-06 1.259916e+00 1.328152e-06 -4.508541e-05 4.504414e-01
1.605          1.966253e-06 -4.976435e-05 1.709827e+00 6.451338e-07 -5.005117e-06 1.259546e+00 1.321120e-06 -4.475924e-05 4.502806e-01
1.6125         1.958141e-06 -4.942188e-05 1.709298e+00 6.438131e-07 -4.987358e-06 1.259178e+00 1.314328e-06 -4.443452e-05 4.501203e-01
1.62           1.948931e-06 -4.909644e-05 1.708771e+00 6.415482e-07 -4.982913e-06 1.258811e+00 1.307383e-06 -4.411352e-05 4.499604e-01
1.6275         1.941519e-06 -4.875606e-05 1.708246e+00 6.408098e-07 -4.962576e-06 1.258445e+00 1.300710e-06 -4.379349e-05 4.498010e-01
1.635          1.932275e-06 -4.843491e-05 1.707723e+00 6.383777e-07 -4.958576e-06 1.258081e+00 1.293898e-06 -4.347634e-05 4.496421e-01
1.6425         1.924813e-06 -4.810539e-05 1.707201e+00 6.374620e-07 -4.942745e-06 1.257718e+00 1.287351e-06 -4.316265e-05 4.494838e-01
1.65           1.915720e-06 -4.778443e-05 1.706682e+00 6.350328e-07 -4.932859e-06 1.257356e+00 1.280687e-06 -4.285157e-05 4.493259e-01
1.6575         1.907998e-06 -4.746736e-05 1.706164e+00 6.338206e-07 -4.923312e-06 1.256995e+00 1.274177e-06 -4.254405e-05 4.491685e-01