# Moment      
# CofR        : (0.000000e+00 0.000000e+00 0.000000e+00)
#
# Time        	total_x total_y total_z	pressure_x pressure_y pressure_z	viscous_x viscous_y viscous_z
0.0075         -3.298198e-05 -5.923696e-05 2.319030e-08 -3.277094e-05 -5.876308e-05 -5.175846e-16 -2.110463e-07 -4.738845e-07 2.319030e-08
0.015          1.924362e-04 1.416449e-04 -2.109355e-07 1.424510e-04 1.469282e-04 2.719599e-14 4.998516e-05 -5.283219e-06 -2.109355e-07
0.0225         5.705261e-05 -1.197347e-04 1.011213e-07 4.727072e-05 -1.197210e-04 -5.209429e-15 9.781892e-06 -1.361005e-08 1.011213e-07
0.03           -1.318482e-04 -3.534037e-06 1.708998e-07 -1.376487e-04 -2.677449e-06 1.183767e-14 5.800453e-06 -8.565889e-07 1.708998e-07
0.0375         5.148782e-05 -3.042398e-05 -2.354217e-07 5.163781e-05 -3.008395e-05 1.047616e-14 -1.499828e-07 -3.400234e-07 -2.354217e-07
0.045          1.419454e-05 3.744459e-05 1.172147e-07 2.190403e-05 3.787734e-05 3.425266e-15 -7.709486e-06 -4.327573e-07 1.172147e-07
0.0525         -1.178627e-04 -1.011001e-04 -2.823400e-08 -1.091765e-04 -9.942617e-05 3.687487e-15 -8.686174e-06 -1.673895e-06 -2.823400e-08
0.06           3.319327e-05 2.964744e-05 1.276599e-07 3.721732e-05 2.831396e-05 3.524538e-15 -4.024043e-06 1.333479e-06 1.276599e-07
0.0675         -8.607009e-05 -7.856483e-05 -1.872593e-07 -7.789483e-05 -7.833422e-05 1.395280e-15 -8.175260e-06 -2.306114e-07 -1.872593e-07
0.075          2.695358e-05 2.170173e-05 1.179124e-07 3.243365e-05 2.044039e-05 1.440071e-15 -5.480069e-06 1.261338e-06 1.179124e-07
0.0825         -7.644417e-05 -3.150800e-05 -4.813776e-08 -6.793824e-05 -3.154481e-05 -1.509087e-15 -8.505933e-06 3.681504e-08 -4.813776e-08
0.09           2.474712e-05 2.073906e-05 1.523276e-07 3.121197e-05 1.971780e-05 1.603603e-16 -6.464844e-06 1.021266e-06 1.523276e-07
0.0975         -3.617356e-05 -1.774117e-05 4.885520e-08 -2.844750e-05 -1.805483e-05 3.050200e-16 -7.726061e-06 3.136526e-07 4.885520e-08
0.105          2.047223e-05 1.702881e-05 1.575914e-07 2.662021e-05 1.615916e-05 -3.351947e-16 -6.147980e-06 8.696508e-07 1.575914e-07
0.1125         -1.520006e-06 -1.588580e-06 9.959002e-09 5.365405e-06 -1.882274e-06 6.581446e-16 -6.885410e-06 2.936936e-07 9.959001e-09
0.12           1.522713e-05 1.404019e-05 1.716538e-07 2.148607e-05 1.377048e-05 -4.585972e-16 -6.258942e-06 2.697146e-07 1.716538e-07
0.1275         1.168315e-06 8.629454e-07 1.055519e-07 7.808850e-06 9.870190e-07 2.719992e-17 -6.640535e-06 -1.240736e-07 1.055519e-07
0.135          1.265574e-05 1.098411e-05 1.787421e-07 1.880100e-05 1.104791e-05 -6.425050e-16 -6.145268e-06 -6.379804e-08 1.787421e-07
0.1425         3.246336e-06 2.073506e-06 1.300615e-07 9.618663e-06 2.369600e-06 -2.351770e-16 -6.372326e-06 -2.960942e-07 1.300615e-07
0.15           1.476129e-05 2.289976e-06 1.722828e-07 2.076864e-05 2.573763e-06 -7.598563e-16 -6.007350e-06 -2.837867e-07 1.722828e-07
0.1575         9.456679e-06 -1.958067e-06 1.346114e-07 1.560795e-05 -1.608773e-06 -4.811418e-16 -6.151271e-06 -3.492942e-07 1.346114e-07
0.165          1.296981e-05 1.283355e-06 1.468586e-07 1.892905e-05 1.620187e-06 -8.459826e-16 -5.959238e-06 -3.368319e-07 1.468586e-07
0.1725         9.564790e-06 -1.946481e-06 1.207912e-07 1.554284e-05 -1.518392e-06 -6.729440e-16 -5.978050e-06 -4.280893e-07 1.207912e-07
0.18           1.166304e-05 4.714066e-07 1.277748e-07 1.747312e-05 9.013341e-07 -8.788949e-16 -5.810085e-06 -4.299275e-07 1.277748e-07
0.1875         9.477439e-06 -1.868325e-06 1.104146e-07 1.528210e-05 -1.373603e-06 -8.186472e-16 -5.804661e-06 -4.947226e-07 1.104146e-07
0.195          1.059429e-05 -2.755966e-07 1.126576e-07 1.627177e-05 2.213990e-07 -8.995625e-16 -5.677479e-06 -4.969957e-07 1.126576e-07
0.2025         9.140559e-06 -1.928172e-06 1.002479e-07 1.477973e-05 -1.384702e-06 -8.932403e-16 -5.639171e-06 -5.434695e-07 1.002479e-07
0.21           9.708960e-06 -8.247207e-07 9.986130e-08 1.524155e-05 -2.779715e-07 -9.361408e-16 -5.532588e-06 -5.467492e-07 9.986130e-08
0.2175         8.752895e-06 -1.900027e-06 9.085233e-08 1.423228e-05 -1.319316e-06 -9.265524e-16 -5.479382e-06 -5.807114e-07 9.085233e-08
0.225          8.874122e-06 -1.234271e-06 8.904624e-08 1.425949e-05 -6.482084e-07 -9.484533e-16 -5.385368e-06 -5.860627e-07 8.904624e-08
0.2325         8.221480e-06 -1.922506e-06 8.217592e-08 1.354476e-05 -1.312274e-06 -9.524310e-16 -5.323277e-06 -6.102321e-07 8.217592e-08
0.24           8.260007e-06 -1.598120e-06 7.990038e-08 1.349255e-05 -9.796519e-07 -9.566729e-16 -5.232541e-06 -6.184681e-07 7.990038e-08
0.2475         7.966316e-06 -1.928288e-06 8.388385e-08 1.308652e-05 -1.294488e-06 -9.157917e-16 -5.120207e-06 -6.338003e-07 8.388385e-08
0.255          7.787112e-06 -1.855487e-06 9.942587e-08 1.282459e-05 -1.209728e-06 -8.763064e-16 -5.037474e-06 -6.457586e-07 9.942587e-08
0.2625         7.394229e-06 -2.080651e-06 1.039285e-07 1.238504e-05 -1.419657e-06 -8.669484e-16 -4.990814e-06 -6.609947e-07 1.039285e-07
0.27           7.134938e-06 -2.002105e-06 1.070920e-07 1.206935e-05 -1.333137e-06 -8.746056e-16 -4.934409e-06 -6.689687e-07 1.070920e-07
0.2775         6.818930e-06 -2.158977e-06 1.057030e-07 1.170335e-05 -1.478836e-06 -8.650985e-16 -4.884422e-06 -6.801409e-07 1.057030e-07
0.285          6.597487e-06 -2.113749e-06 1.049986e-07 1.142605e-05 -1.427787e-06 -8.731351e-16 -4.828566e-06 -6.859627e-07 1.049986e-07
0.2925         6.304915e-06 -2.254752e-06 1.020658e-07 1.107816e-05 -1.559333e-06 -8.556862e-16 -4.773245e-06 -6.954187e-07 1.020658e-07
0.3            6.088565e-06 -2.210581e-06 9.984989e-08 1.080393e-05 -1.510972e-06 -8.563706e-16 -4.715369e-06 -6.996091e-07 9.984989e-08
0.3075         5.811900e-06 -2.311479e-06 9.650870e-08 1.047164e-05 -1.606066e-06 -8.468839e-16 -4.659736e-06 -7.054131e-07 9.650870e-08
0.315          5.613122e-06 -2.305149e-06 9.379160e-08 1.021451e-05 -1.596734e-06 -8.470329e-16 -4.601383e-06 -7.084144e-07 9.379160e-08
0.3225         5.399976e-06 -2.353231e-06 9.032374e-08 9.940251e-06 -1.640365e-06 -8.378037e-16 -4.540275e-06 -7.128664e-07 9.032375e-08
0.33           5.182387e-06 -2.376092e-06 8.729350e-08 9.663670e-06 -1.660650e-06 -8.275986e-16 -4.481283e-06 -7.154415e-07 8.729350e-08
0.3375         4.996789e-06 -2.395075e-06 8.404638e-08 9.417068e-06 -1.677397e-06 -8.170209e-16 -4.420279e-06 -7.176777e-07 8.404638e-08
0.345          4.791811e-06 -2.401279e-06 8.107391e-08 9.151633e-06 -1.682713e-06 -8.104547e-16 -4.359822e-06 -7.185665e-07 8.107391e-08
0.3525         4.611905e-06 -2.449334e-06 7.792331e-08 8.909573e-06 -1.728737e-06 -8.000531e-16 -4.297668e-06 -7.205971e-07 7.792331e-08
0.36           4.455462e-06 -2.452162e-06 7.506310e-08 8.690707e-06 -1.731401e-06 -7.871714e-16 -4.235246e-06 -7.207610e-07 7.506310e-08
0.3675         4.247703e-06 -2.473683e-06 7.215883e-08 8.421591e-06 -1.752470e-06 -7.886216e-16 -4.173888e-06 -7.212129e-07 7.215883e-08
0.375          4.115612e-06 -2.478923e-06 6.942585e-08 8.229425e-06 -1.758295e-06 -7.587179e-16 -4.113813e-06 -7.206285e-07 6.942585e-08
0.3825         3.931708e-06 -2.514212e-06 6.672890e-08 7.983496e-06 -1.793849e-06 -7.673305e-16 -4.051788e-06 -7.203633e-07 6.672890e-08
0.39           3.832081e-06 -2.491161e-06 6.416052e-08 7.820816e-06 -1.771956e-06 -7.515825e-16 -3.988735e-06 -7.192045e-07 6.416052e-08
0.3975         3.625801e-06 -2.524315e-06 6.170821e-08 7.553487e-06 -1.806582e-06 -7.478284e-16 -3.927686e-06 -7.177326e-07 6.170821e-08
0.405          3.520381e-06 -2.529961e-06 5.928568e-08 7.385822e-06 -1.813745e-06 -7.307387e-16 -3.865441e-06 -7.162157e-07 5.928568e-08
0.4125         3.400051e-06 -2.533117e-06 5.696473e-08 7.205309e-06 -1.818928e-06 -7.221735e-16 -3.805259e-06 -7.141886e-07 5.696473e-08
0.42           3.257577e-06 -2.529031e-06 5.475212e-08 6.999287e-06 -1.816902e-06 -7.167525e-16 -3.741710e-06 -7.121291e-07 5.475212e-08
0.4275         3.150001e-06 -2.535548e-06 5.258697e-08 6.831981e-06 -1.825768e-06 -7.057817e-16 -3.681981e-06 -7.097800e-07 5.258697e-08
0.435          3.022921e-06 -2.536902e-06 5.054709e-08 6.642904e-06 -1.829219e-06 -6.912466e-16 -3.619983e-06 -7.076833e-07 5.054709e-08
0.4425         2.927933e-06 -2.545308e-06 4.859309e-08 6.487469e-06 -1.840181e-06 -6.841451e-16 -3.559537e-06 -7.051269e-07 4.859309e-08
0.45           2.806690e-06 -2.544382e-06 4.674175e-08 6.306519e-06 -1.842136e-06 -6.727813e-16 -3.499828e-06 -7.022462e-07 4.674175e-08
0.4575         2.696608e-06 -2.544342e-06 4.497768e-08 6.136980e-06 -1.844802e-06 -6.689663e-16 -3.440371e-06 -6.995395e-07 4.497768e-08
0.465          2.612478e-06 -2.547899e-06 4.327656e-08 5.992774e-06 -1.851412e-06 -6.640874e-16 -3.380296e-06 -6.964869e-07 4.327656e-08
0.4725         2.503105e-06 -2.532910e-06 4.162431e-08 5.824638e-06 -1.840490e-06 -6.466724e-16 -3.321533e-06 -6.924193e-07 4.162431e-08
0.48           2.407577e-06 -2.537072e-06 4.005204e-08 5.670671e-06 -1.847595e-06 -6.438196e-16 -3.263094e-06 -6.894769e-07 4.005204e-08
0.4875         2.337140e-06 -2.532267e-06 3.853859e-08 5.542235e-06 -1.845934e-06 -6.305110e-16 -3.205096e-06 -6.863331e-07 3.853859e-08
0.495          2.208065e-06 -2.531038e-06 3.712274e-08 5.357038e-06 -1.848013e-06 -6.188897e-16 -3.148972e-06 -6.830245e-07 3.712274e-08
0.5025         2.194891e-06 -2.510175e-06 3.572280e-08 5.285641e-06 -1.830956e-06 -6.192827e-16 -3.090750e-06 -6.792191e-07 3.572280e-08
0.51           2.080596e-06 -2.518924e-06 3.437232e-08 5.115455e-06 -1.842847e-06 -6.066789e-16 -3.034859e-06 -6.760777e-07 3.437232e-08
0.5175         2.016078e-06 -2.506144e-06 3.309277e-08 4.995006e-06 -1.833991e-06 -6.040565e-16 -2.978928e-06 -6.721535e-07 3.309277e-08
0.525          1.940038e-06 -2.500572e-06 3.187183e-08 4.863467e-06 -1.831921e-06 -5.915610e-16 -2.923429e-06 -6.686515e-07 3.187183e-08
0.5325         1.877697e-06 -2.497348e-06 3.062924e-08 4.746101e-06 -1.832263e-06 -5.870277e-16 -2.868404e-06 -6.650846e-07 3.062924e-08
0.54           1.953469e-06 -2.505192e-06 3.595134e-08 4.722102e-06 -1.843291e-06 -5.459703e-16 -2.768634e-06 -6.619011e-07 3.595134e-08
0.5475         1.813926e-06 -2.488133e-06 4.103810e-08 4.526359e-06 -1.830498e-06 -5.346472e-16 -2.712433e-06 -6.576349e-07 4.103810e-08
0.555          1.829245e-06 -2.488433e-06 4.903413e-08 4.485448e-06 -1.832706e-06 -5.068577e-16 -2.656204e-06 -6.557269e-07 4.903413e-08
0.5625         1.717378e-06 -2.481571e-06 5.521943e-08 4.327001e-06 -1.827896e-06 -4.981773e-16 -2.609623e-06 -6.536747e-07 5.521943e-08
0.57           1.687407e-06 -2.473477e-06 5.820316e-08 4.254250e-06 -1.822564e-06 -4.906286e-16 -2.566843e-06 -6.509130e-07 5.820316e-08
0.5775         1.588264e-06 -2.467505e-06 5.982906e-08 4.115434e-06 -1.819207e-06 -4.913740e-16 -2.527171e-06 -6.482975e-07 5.982906e-08
0.585          1.546496e-06 -2.463606e-06 6.060724e-08 4.034293e-06 -1.817860e-06 -4.873557e-16 -2.487796e-06 -6.457452e-07 6.060724e-08
0.5925         1.480381e-06 -2.464690e-06 6.081026e-08 3.929872e-06 -1.821760e-06 -4.776520e-16 -2.449491e-06 -6.429297e-07 6.081026e-08
0.6            1.406486e-06 -2.443783e-06 6.063424e-08 3.818826e-06 -1.804143e-06 -4.688971e-16 -2.412340e-06 -6.396401e-07 6.063424e-08
0.6075         1.351729e-06 -2.445782e-06 6.016650e-08 3.726327e-06 -1.808591e-06 -4.675825e-16 -2.374598e-06 -6.371907e-07 6.016651e-08
0.615          1.286135e-06 -2.432048e-06 5.951108e-08 3.623834e-06 -1.798115e-06 -4.570725e-16 -2.337699e-06 -6.339328e-07 5.951108e-08
0.6225         1.226447e-06 -2.430111e-06 5.870552e-08 3.527716e-06 -1.799107e-06 -4.539622e-16 -2.301269e-06 -6.310043e-07 5.870552e-08
0.63           1.147597e-06 -2.410683e-06 5.777427e-08 3.411610e-06 -1.783075e-06 -4.480262e-16 -2.264013e-06 -6.276084e-07 5.777427e-08
0.6375         1.127947e-06 -2.410368e-06 5.677924e-08 3.354903e-06 -1.785973e-06 -4.441705e-16 -2.226956e-06 -6.243953e-07 5.677924e-08
0.645          1.040956e-06 -2.392309e-06 5.572673e-08 3.232895e-06 -1.771181e-06 -4.369809e-16 -2.191939e-06 -6.211279e-07 5.572673e-08
0.6525         9.911618e-07 -2.387903e-06 5.460875e-08 3.148198e-06 -1.769867e-06 -4.353817e-16 -2.157037e-06 -6.180362e-07 5.460875e-08
0.66           9.597404e-07 -2.374480e-06 5.349499e-08 3.080680e-06 -1.759673e-06 -4.275551e-16 -2.120939e-06 -6.148070e-07 5.349499e-08
0.6675         8.712597e-07 -2.361703e-06 5.235750e-08 2.958065e-06 -1.750475e-06 -4.234758e-16 -2.086805e-06 -6.112281e-07 5.235750e-08
0.675          8.577749e-07 -2.359107e-06 5.120437e-08 2.909399e-06 -1.750945e-06 -4.160761e-16 -2.051624e-06 -6.081623e-07 5.120437e-08
0.6825         7.951420e-07 -2.334894e-06 5.005548e-08 2.812007e-06 -1.730382e-06 -4.116987e-16 -2.016865e-06 -6.045119e-07 5.005548e-08
0.69           7.674953e-07 -2.335368e-06 4.889898e-08 2.749726e-06 -1.734026e-06 -4.092660e-16 -1.982231e-06 -6.013416e-07 4.889898e-08
0.6975         7.087515e-07 -2.316499e-06 4.776261e-08 2.656853e-06 -1.718606e-06 -4.014801e-16 -1.948101e-06 -5.978932e-07 4.776261e-08
0.705          6.836901e-07 -2.306723e-06 4.663301e-08 2.596546e-06 -1.712434e-06 -3.996640e-16 -1.912856e-06 -5.942889e-07 4.663302e-08
0.7125         6.271783e-07 -2.289582e-06 4.551718e-08 2.507011e-06 -1.698728e-06 -3.954695e-16 -1.879832e-06 -5.908538e-07 4.551718e-08
0.72           5.999101e-07 -2.287898e-06 4.443425e-08 2.446698e-06 -1.700229e-06 -3.891066e-16 -1.846788e-06 -5.876684e-07 4.443425e-08
0.7275         5.547567e-07 -2.266663e-06 4.337860e-08 2.368082e-06 -1.682507e-06 -3.839228e-16 -1.813325e-06 -5.841558e-07 4.337860e-08
0.735          5.324728e-07 -2.257082e-06 4.233448e-08 2.312962e-06 -1.676354e-06 -3.793556e-16 -1.780489e-06 -5.807286e-07 4.233448e-08
0.7425         4.867142e-07 -2.240508e-06 4.130708e-08 2.234801e-06 -1.663240e-06 -3.765095e-16 -1.748087e-06 -5.772673e-07 4.130708e-08
0.75           4.602737e-07 -2.237314e-06 4.026836e-08 2.175877e-06 -1.663203e-06 -3.745038e-16 -1.715604e-06 -5.741111e-07 4.026836e-08
0.7575         4.223859e-07 -2.214202e-06 3.926477e-08 2.105902e-06 -1.643764e-06 -3.684322e-16 -1.683516e-06 -5.704385e-07 3.926477e-08
0.765          4.124751e-07 -2.213017e-06 3.829044e-08 2.063577e-06 -1.645761e-06 -3.646714e-16 -1.651102e-06 -5.672560e-07 3.829044e-08
0.7725         3.567453e-07 -2.191431e-06 3.732985e-08 1.976386e-06 -1.627669e-06 -3.590200e-16 -1.619641e-06 -5.637620e-07 3.732985e-08
0.78           3.508494e-07 -2.190284e-06 3.640321e-08 1.937371e-06 -1.629708e-06 -3.597112e-16 -1.586522e-06 -5.605764e-07 3.640321e-08
0.7875         3.200621e-07 -2.164041e-06 3.550550e-08 1.878465e-06 -1.607123e-06 -3.457588e-16 -1.558403e-06 -5.569182e-07 3.550550e-08
0.795          3.013320e-07 -2.163387e-06 3.462560e-08 1.825925e-06 -1.609898e-06 -3.502854e-16 -1.524593e-06 -5.534887e-07 3.462560e-08
0.8025         2.764290e-07 -2.140570e-06 3.375952e-08 1.770929e-06 -1.590576e-06 -3.425469e-16 -1.494500e-06 -5.499937e-07 3.375952e-08
0.81           2.558509e-07 -2.136134e-06 3.292800e-08 1.723733e-06 -1.589330e-06 -3.401074e-16 -1.467882e-06 -5.468040e-07 3.292800e-08
0.8175         2.188625e-07 -2.117168e-06 3.210922e-08 1.653442e-06 -1.573833e-06 -3.363060e-16 -1.434579e-06 -5.433348e-07 3.210922e-08
0.825          2.134726e-07 -2.107211e-06 3.131639e-08 1.618718e-06 -1.567072e-06 -3.311696e-16 -1.405245e-06 -5.401398e-07 3.131639e-08
0.8325         1.891993e-07 -2.089660e-06 3.053787e-08 1.564985e-06 -1.553127e-06 -3.290350e-16 -1.375786e-06 -5.365329e-07 3.053787e-08
0.84           1.756158e-07 -2.082820e-06 2.978450e-08 1.522013e-06 -1.549346e-06 -3.253962e-16 -1.346397e-06 -5.334746e-07 2.978450e-08
0.8475         1.532045e-07 -2.064923e-06 2.905995e-08 1.470863e-06 -1.534885e-06 -3.234649e-16 -1.317658e-06 -5.300378e-07 2.905995e-08
0.855          1.448808e-07 -2.053897e-06 2.836287e-08 1.433307e-06 -1.527242e-06 -3.199142e-16 -1.288426e-06 -5.266546e-07 2.836287e-08
0.8625         1.262571e-07 -2.043821e-06 2.767967e-08 1.386586e-06 -1.520314e-06 -3.167022e-16 -1.260329e-06 -5.235071e-07 2.767967e-08
0.87           1.212120e-07 -2.025221e-06 2.701910e-08 1.353338e-06 -1.505051e-06 -3.151776e-16 -1.232126e-06 -5.201696e-07 2.701910e-08
0.8775         1.032321e-07 -2.021659e-06 2.636340e-08 1.307372e-06 -1.504461e-06 -3.123519e-16 -1.204140e-06 -5.171974e-07 2.636340e-08
0.885          7.899428e-08 -2.000146e-06 2.573918e-08 1.256068e-06 -1.486393e-06 -3.090451e-16 -1.177074e-06 -5.137530e-07 2.573918e-08
0.8925         8.979524e-08 -1.994051e-06 2.513001e-08 1.238511e-06 -1.483408e-06 -3.067750e-16 -1.148715e-06 -5.106433e-07 2.513001e-08
0.9            6.929420e-08 -1.976695e-06 2.454161e-08 1.191348e-06 -1.469248e-06 -3.032785e-16 -1.122054e-06 -5.074469e-07 2.454161e-08
0.9075         6.878682e-08 -1.969867e-06 2.396392e-08 1.164584e-06 -1.465731e-06 -2.990839e-16 -1.095798e-06 -5.041369e-07 2.396392e-08
0.915          5.003245e-08 -1.954472e-06 2.340161e-08 1.119057e-06 -1.453315e-06 -2.953977e-16 -1.069025e-06 -5.011564e-07 2.340161e-08
0.9225         4.790362e-08 -1.940152e-06 2.286000e-08 1.090766e-06 -1.442264e-06 -2.921654e-16 -1.042863e-06 -4.978879e-07 2.286000e-08
0.93           4.152583e-08 -1.931063e-06 2.233468e-08 1.057857e-06 -1.436190e-06 -2.886553e-16 -1.016331e-06 -4.948732e-07 2.233468e-08
0.9375         2.933496e-08 -1.918617e-06 2.182573e-08 1.020826e-06 -1.426929e-06 -2.854840e-16 -9.914911e-07 -4.916877e-07 2.182573e-08
0.945          2.137139e-08 -1.903473e-06 2.133334e-08 9.869295e-07 -1.414897e-06 -2.823059e-16 -9.655582e-07 -4.885762e-07 2.133334e-08
0.9525         1.466936e-08 -1.892300e-06 2.085564e-08 9.550211e-07 -1.406796e-06 -2.781995e-16 -9.403517e-07 -4.855038e-07 2.085564e-08
0.96           1.767588e-08 -1.878554e-06 2.038875e-08 9.329490e-07 -1.396210e-06 -2.772440e-16 -9.152731e-07 -4.823440e-07 2.038875e-08
0.9675         -2.243654e-10 -1.874843e-06 1.994282e-08 8.911001e-07 -1.395325e-06 -2.747775e-16 -8.913245e-07 -4.795183e-07 1.994282e-08
0.975          -1.144094e-08 -1.852063e-06 1.951019e-08 8.552874e-07 -1.375735e-06 -2.717282e-16 -8.667283e-07 -4.763282e-07 1.951019e-08
0.9825         1.333711e-08 -1.849178e-06 1.909058e-08 8.551675e-07 -1.375755e-06 -2.698105e-16 -8.418304e-07 -4.734233e-07 1.909058e-08
0.99           -3.171955e-08 -1.831767e-06 1.868003e-08 7.874166e-07 -1.361390e-06 -2.663817e-16 -8.191362e-07 -4.703773e-07 1.868003e-08
0.9975         1.546695e-08 -1.821622e-06 1.828251e-08 8.100213e-07 -1.354275e-06 -2.629123e-16 -7.945544e-07 -4.673463e-07 1.828251e-08
1.005          -1.984567e-08 -1.808554e-06 1.789145e-08 7.512148e-07 -1.344119e-06 -2.603034e-16 -7.710605e-07 -4.644353e-07 1.789145e-08
1.0125         -1.636771e-09 -1.796725e-06 1.751632e-08 7.463421e-07 -1.335242e-06 -2.563257e-16 -7.479789e-07 -4.614827e-07 1.751632e-08
1.02           -1.045756e-08 -1.787218e-06 1.715631e-08 7.149746e-07 -1.328591e-06 -2.548485e-16 -7.254321e-07 -4.586270e-07 1.715631e-08
1.0275         -7.050956e-09 -1.771229e-06 1.680387e-08 6.953214e-07 -1.315613e-06 -2.523616e-16 -7.023724e-07 -4.556168e-07 1.680388e-08
1.035          1.516039e-09 -1.763592e-06 1.646887e-08 6.799376e-07 -1.310945e-06 -2.495901e-16 -6.784216e-07 -4.526474e-07 1.646887e-08
1.0425         -1.503788e-08 -1.749573e-06 1.614202e-08 6.417567e-07 -1.299791e-06 -2.474691e-16 -6.567945e-07 -4.497825e-07 1.614202e-08
1.05           1.353490e-10 -1.739261e-06 1.582365e-08 6.348658e-07 -1.292310e-06 -2.459919e-16 -6.347304e-07 -4.469507e-07 1.582365e-08
1.0575         -6.672280e-09 -1.726812e-06 1.551410e-08 6.064570e-07 -1.282717e-06 -2.436473e-16 -6.131293e-07 -4.440955e-07 1.551410e-08
1.065          1.784734e-09 -1.717314e-06 1.521382e-08 5.934397e-07 -1.275969e-06 -2.423531e-16 -5.916549e-07 -4.413449e-07 1.521382e-08
1.0725         2.368558e-09 -1.704475e-06 1.492457e-08 5.728549e-07 -1.265937e-06 -2.404625e-16 -5.704863e-07 -4.385379e-07 1.492457e-08
1.08           1.651993e-09 -1.695024e-06 1.464445e-08 5.509931e-07 -1.259248e-06 -2.387752e-16 -5.493411e-07 -4.357759e-07 1.464445e-08
1.0875         8.779920e-09 -1.678410e-06 1.436849e-08 5.369969e-07 -1.245654e-06 -2.367355e-16 -5.282170e-07 -4.327554e-07 1.436850e-08
1.095          7.084708e-09 -1.670610e-06 1.410295e-08 5.147383e-07 -1.240616e-06 -2.341809e-16 -5.076536e-07 -4.299941e-07 1.410295e-08
1.1025         2.421902e-08 -1.658997e-06 1.384977e-08 5.116739e-07 -1.231668e-06 -2.315720e-16 -4.874549e-07 -4.273288e-07 1.384977e-08
1.11           2.035352e-08 -1.650751e-06 1.360298e-08 4.873441e-07 -1.226100e-06 -2.296950e-16 -4.669905e-07 -4.246509e-07 1.360298e-08
1.1175         2.964537e-08 -1.635721e-06 1.337503e-08 4.770878e-07 -1.213854e-06 -2.275130e-16 -4.474425e-07 -4.218673e-07 1.337503e-08
1.125          3.126082e-08 -1.628776e-06 1.314457e-08 4.592579e-07 -1.209513e-06 -2.253582e-16 -4.279970e-07 -4.192627e-07 1.314457e-08
1.1325         4.598109e-08 -1.614660e-06 1.291896e-08 4.533953e-07 -1.198195e-06 -2.233253e-16 -4.074142e-07 -4.164648e-07 1.291896e-08
1.14           4.693694e-08 -1.605470e-06 1.270348e-08 4.358688e-07 -1.191555e-06 -2.219972e-16 -3.889319e-07 -4.139152e-07 1.270348e-08
1.1475         5.225921e-08 -1.595342e-06 1.249413e-08 4.221358e-07 -1.184020e-06 -2.194154e-16 -3.698766e-07 -4.113220e-07 1.249413e-08
1.155          5.457615e-08 -1.582177e-06 1.228907e-08 4.059365e-07 -1.173575e-06 -2.180940e-16 -3.513604e-07 -4.086020e-07 1.228907e-08
1.1625         9.798790e-08 -1.574196e-06 1.567616e-08 4.036906e-07 -1.168207e-06 -2.030643e-16 -3.057027e-07 -4.059895e-07 1.567616e-08
1.17           8.873264e-08 -1.568474e-06 1.870651e-08 3.672726e-07 -1.165201e-06 -1.982057e-16 -2.785400e-07 -4.032732e-07 1.870651e-08
1.1775         1.060031e-07 -1.556061e-06 2.029568e-08 3.660076e-07 -1.155472e-06 -1.970334e-16 -2.600045e-07 -4.005892e-07 2.029568e-08
1.185          1.339366e-07 -1.545155e-06 2.570272e-08 3.684386e-07 -1.146167e-06 -1.832708e-16 -2.345020e-07 -3.989881e-07 2.570272e-08
1.1925         1.455214e-07 -1.533782e-06 3.032794e-08 3.610378e-07 -1.136722e-06 -1.809195e-16 -2.155164e-07 -3.970606e-07 3.032794e-08
1.2            1.542318e-07 -1.528770e-06 3.298216e-08 3.541268e-07 -1.133624e-06 -1.766978e-16 -1.998949e-07 -3.951463e-07 3.298216e-08
1.2075         1.692525e-07 -1.518981e-06 3.483308e-08 3.534823e-07 -1.125859e-06 -1.777346e-16 -1.842298e-07 -3.931218e-07 3.483308e-08
1.215          -3.537938e-07 -1.433353e-06 3.594129e-08 -2.443207e-07 -1.036251e-06 7.330562e-17 -1.094732e-07 -3.971015e-07 3.594129e-08
1.2225         -3.085881e-07 -1.513192e-06 3.707445e-08 -2.857691e-07 -1.108454e-06 1.167211e-16 -2.281905e-08 -4.047385e-07 3.707445e-08
1.23           -1.925293e-07 -1.504331e-06 3.605454e-08 -2.434920e-07 -1.095302e-06 1.245681e-16 5.096263e-08 -4.090291e-07 3.605454e-08
1.2375         -1.977551e-07 -1.495985e-06 3.636593e-08 -3.011540e-07 -1.083506e-06 1.219727e-16 1.033988e-07 -4.124795e-07 3.636593e-08
1.245          -1.292744e-07 -1.498775e-06 3.604858e-08 -2.753680e-07 -1.082504e-06 1.186930e-16 1.460936e-07 -4.162703e-07 3.604858e-08
1.2525         -1.244089e-07 -1.487968e-06 3.622960e-08 -3.045265e-07 -1.068990e-06 1.144104e-16 1.801176e-07 -4.189781e-07 3.622960e-08
1.26           -9.592258e-08 -1.488933e-06 3.598041e-08 -3.039076e-07 -1.067391e-06 1.082779e-16 2.079850e-07 -4.215420e-07 3.598041e-08
1.2675         -7.110729e-08 -1.481196e-06 3.596269e-08 -3.029492e-07 -1.057713e-06 1.041986e-16 2.318419e-07 -4.234836e-07 3.596269e-08
1.275          -5.742991e-08 -1.478985e-06 3.572299e-08 -3.088602e-07 -1.053817e-06 9.964496e-17 2.514303e-07 -4.251681e-07 3.572299e-08
1.2825         -5.195957e-08 -1.473607e-06 3.558551e-08 -3.195594e-07 -1.047112e-06 9.513874e-17 2.675998e-07 -4.264950e-07 3.558551e-08
1.29           -4.968201e-08 -1.468167e-06 3.534729e-08 -3.306813e-07 -1.040569e-06 8.914852e-17 2.809993e-07 -4.275983e-07 3.534729e-08
1.2975         -4.530970e-08 -1.462316e-06 3.516057e-08 -3.379476e-07 -1.033917e-06 8.453389e-17 2.926379e-07 -4.283984e-07 3.516057e-08
1.305          -4.682576e-08 -1.458664e-06 3.492645e-08 -3.491193e-07 -1.029580e-06 7.981761e-17 3.022935e-07 -4.290840e-07 3.492645e-08
1.3125         -4.726233e-08 -1.451059e-06 3.471838e-08 -3.576058e-07 -1.021594e-06 7.552823e-17 3.103434e-07 -4.294654e-07 3.471838e-08
1.32           -4.517045e-08 -1.445587e-06 3.448874e-08 -3.629329e-07 -1.015871e-06 7.216721e-17 3.177625e-07 -4.297164e-07 3.448874e-08
1.3275         -5.257472e-08 -1.439239e-06 3.427159e-08 -3.760388e-07 -1.009424e-06 6.879940e-17 3.234641e-07 -4.298156e-07 3.427159e-08
1.335          -5.171483e-08 -1.434084e-06 3.404597e-08 -3.803923e-07 -1.004271e-06 6.503180e-17 3.286774e-07 -4.298137e-07 3.404597e-08
1.3425         -5.948711e-08 -1.426007e-06 3.382819e-08 -3.924134e-07 -9.964150e-07 6.186729e-17 3.329263e-07 -4.295922e-07 3.382819e-08
1.35           -6.408979e-08 -1.420622e-06 3.360904e-08 -4.006339e-07 -9.912879e-07 5.972599e-17 3.365441e-07 -4.293342e-07 3.360904e-08
1.3575         -7.201887e-08 -1.413270e-06 3.339299e-08 -4.115571e-07 -9.843429e-07 5.634463e-17 3.395382e-07 -4.289270e-07 3.339299e-08
1.365          -7.548792e-08 -1.406409e-06 3.317626e-08 -4.176491e-07 -9.779927e-07 5.396616e-17 3.421612e-07 -4.284163e-07 3.317625e-08
1.3725         -8.241726e-08 -1.399235e-06 3.296449e-08 -4.267893e-07 -9.714205e-07 5.156737e-17 3.443720e-07 -4.278146e-07 3.296449e-08
1.38           -9.051185e-08 -1.392380e-06 3.275608e-08 -4.366132e-07 -9.652574e-07 4.943962e-17 3.461013e-07 -4.271228e-07 3.275608e-08
1.3875         -9.847020e-08 -1.385343e-06 3.255195e-08 -4.458728e-07 -9.589781e-07 4.703405e-17 3.474026e-07 -4.263652e-07 3.255195e-08
1.395          -1.040762e-07 -1.378718e-06 3.235158e-08 -4.527124e-07 -9.531518e-07 4.630221e-17 3.486362e-07 -4.255664e-07 3.235158e-08
1.4025         -1.117078e-07 -1.370498e-06 3.215335e-08 -4.613244e-07 -9.458755e-07 4.406604e-17 3.496165e-07 -4.246229e-07 3.215335e-08
1.41           -1.186544e-07 -1.363819e-06 3.195966e-08 -4.690299e-07 -9.401508e-07 4.322579e-17 3.503755e-07 -4.236680e-07 3.195966e-08
1.4175         -1.228885e-07 -1.356411e-06 3.176624e-08 -4.738766e-07 -9.337819e-07 4.138942e-17 3.509881e-07 -4.226293e-07 3.176624e-08
1.425          -1.302891e-07 -1.348664e-06 3.157582e-08 -4.818854e-07 -9.271270e-07 3.980377e-17 3.515963e-07 -4.215367e-07 3.157582e-08
1.4325         -1.376780e-07 -1.342055e-06 3.138813e-08 -4.895754e-07 -9.216540e-07 3.913292e-17 3.518974e-07 -4.204010e-07 3.138813e-08
1.44           -1.411201e-07 -1.334883e-06 3.120296e-08 -4.931550e-07 -9.156369e-07 3.831299e-17 3.520349e-07 -4.192460e-07 3.120296e-08
1.4475         -1.486800e-07 -1.326396e-06 3.101876e-08 -5.007974e-07 -9.084073e-07 3.628689e-17 3.521174e-07 -4.179887e-07 3.101876e-08
1.455          -1.526251e-07 -1.318391e-06 3.083839e-08 -5.049613e-07 -9.017195e-07 3.594130e-17 3.523362e-07 -4.166714e-07 3.083839e-08
1.4625         -1.595139e-07 -1.312264e-06 3.066342e-08 -5.119690e-07 -8.968954e-07 3.550084e-17 3.524552e-07 -4.153685e-07 3.066342e-08
1.47           -1.597318e-07 -1.303026e-06 3.049112e-08 -5.121839e-07 -8.890493e-07 3.432178e-17 3.524520e-07 -4.139767e-07 3.049112e-08
1.4775         -1.696905e-07 -1.298882e-06 3.032080e-08 -5.220008e-07 -8.862401e-07 3.409138e-17 3.523103e-07 -4.126420e-07 3.032080e-08
1.485          -1.778732e-07 -1.288588e-06 3.015471e-08 -5.299613e-07 -8.774330e-07 3.283100e-17 3.520881e-07 -4.111554e-07 3.015471e-08
1.4925         -1.861909e-07 -1.282353e-06 2.999086e-08 -5.380124e-07 -8.726574e-07 3.242442e-17 3.518216e-07 -4.096958e-07 2.999086e-08
1.5            -1.819709e-07 -1.274298e-06 2.983126e-08 -5.340022e-07 -8.660878e-07 3.176712e-17 3.520312e-07 -4.082105e-07 2.983126e-08
1.5075         -1.908809e-07 -1.267690e-06 2.967492e-08 -5.426796e-07 -8.609841e-07 3.194331e-17 3.517987e-07 -4.067062e-07 2.967492e-08
1.515          -1.951881e-07 -1.261473e-06 2.952063e-08 -5.465048e-07 -8.562483e-07 3.029667e-17 3.513167e-07 -4.052243e-07 2.952063e-08
1.5225         -1.975563e-07 -1.249963e-06 2.937076e-08 -5.488496e-07 -8.463985e-07 2.985622e-17 3.512933e-07 -4.035642e-07 2.937076e-08
1.53           -2.002534e-07 -1.245188e-06 2.922223e-08 -5.513273e-07 -8.432186e-07 2.970036e-17 3.510739e-07 -4.019694e-07 2.922223e-08
1.5375         -2.022960e-07 -1.235898e-06 2.907675e-08 -5.534883e-07 -8.355630e-07 2.901596e-17 3.511924e-07 -4.003348e-07 2.907675e-08
1.545          -2.051766e-07 -1.229951e-06 2.893746e-08 -5.560957e-07 -8.312301e-07 2.906339e-17 3.509191e-07 -3.987213e-07 2.893746e-08
1.5525         -2.100293e-07 -1.221667e-06 2.879965e-08 -5.607841e-07 -8.246096e-07 2.826380e-17 3.507548e-07 -3.970571e-07 2.879965e-08
1.56           -2.129730e-07 -1.214693e-06 2.866430e-08 -5.635839e-07 -8.193107e-07 2.806728e-17 3.506109e-07 -3.953824e-07 2.866430e-08
1.5675         -2.165405e-07 -1.207123e-06 2.853207e-08 -5.669837e-07 -8.134251e-07 2.812149e-17 3.504432e-07 -3.936977e-07 2.853207e-08
1.575          -2.187970e-07 -1.200126e-06 2.840291e-08 -5.691243e-07 -8.081227e-07 2.791143e-17 3.503273e-07 -3.920029e-07 2.840291e-08
1.5825         -2.208531e-07 -1.192676e-06 2.827622e-08 -5.709919e-07 -8.023754e-07 2.684756e-17 3.501388e-07 -3.903007e-07 2.827622e-08
1.59           -2.217525e-07 -1.185412e-06 2.815135e-08 -5.717275e-07 -7.968387e-07 2.804018e-17 3.499750e-07 -3.885738e-07 2.815135e-08
1.5975         -2.252023e-07 -1.177930e-06 2.802766e-08 -5.752376e-07 -7.911072e-07 2.668493e-17 3.500352e-07 -3.868227e-07 2.802766e-08
1.605          -2.271520e-07 -1.170584e-06 2.790705e-08 -5.770273e-07 -7.855184e-07 2.681367e-17 3.498753e-07 -3.850654e-07 2.790705e-08
1.6125         -2.290463e-07 -1.163786e-06 2.778936e-08 -5.788025e-07 -7.804448e-07 2.680012e-17 3.497562e-07 -3.833417e-07 2.778936e-08
1.62           -2.329369e-07 -1.155243e-06 2.767192e-08 -5.824611e-07 -7.737145e-07 2.678657e-17 3.495242e-07 -3.815282e-07 2.767192e-08
1.6275         -2.301582e-07 -1.149024e-06 2.755792e-08 -5.796125e-07 -7.692153e-07 2.687466e-17 3.494543e-07 -3.798087e-07 2.755792e-08