# Force       
# CofR        : (0.000000e+00 0.000000e+00 0.000000e+00)
#
# Time        	total_x total_y total_z	pressure_x pressure_y pressure_z	viscous_x viscous_y viscous_z
0.0075         1.600170e-07 -6.517065e-05 5.635868e+01 2.089875e-06 -6.597984e-05 5.442806e+01 -1.929858e-06 8.091943e-07 1.930618e+00
0.015          2.528802e-05 7.823709e-05 -8.257283e+00 2.355752e-05 1.040376e-04 -8.968405e+00 1.730492e-06 -2.580054e-05 7.111222e-01
0.0225         -6.184224e-05 -1.827690e-04 -1.830591e+00 -6.171537e-05 -1.685671e-04 -2.404328e+00 -1.268689e-07 -1.420191e-05 5.737373e-01
0.03           -2.839843e-05 -2.573426e-05 1.436654e+00 -2.685450e-05 -2.540455e-05 9.712059e-01 -1.543924e-06 -3.297091e-07 4.654477e-01
0.0375         -8.991376e-06 -9.603543e-06 1.579840e+00 -8.406643e-06 -9.432655e-06 1.153663e+00 -5.847332e-07 -1.708879e-07 4.261765e-01
0.045          -2.480082e-06 -4.578040e-06 1.561255e+00 -2.451100e-06 -3.195193e-06 1.164341e+00 -2.898213e-08 -1.382847e-06 3.969141e-01
0.0525         4.729910e-09 -5.081131e-06 1.517134e+00 -1.365145e-07 -2.417156e-06 1.145588e+00 1.412444e-07 -2.663974e-06 3.715463e-01
0.06           1.575954e-06 -3.946885e-06 1.465289e+00 1.377144e-06 -3.435959e-07 1.114481e+00 1.988106e-07 -3.603289e-06 3.508080e-01
0.0675         1.791091e-06 -4.484230e-06 1.415616e+00 1.595695e-06 -2.219252e-07 1.081912e+00 1.953958e-07 -4.262305e-06 3.337042e-01
0.075          5.709586e-07 -5.956121e-06 1.370561e+00 4.354879e-07 -1.191334e-06 1.051277e+00 1.354707e-07 -4.764787e-06 3.192834e-01
0.0825         4.992943e-07 -6.592618e-06 1.329992e+00 4.130664e-07 -1.428835e-06 1.023076e+00 8.622795e-08 -5.163782e-06 3.069160e-01
0.09           4.151756e-07 -7.025129e-06 1.293664e+00 3.585414e-07 -1.559036e-06 9.974881e-01 5.663415e-08 -5.466093e-06 2.961758e-01
0.0975         3.831566e-07 -7.589173e-06 1.261618e+00 3.449918e-07 -1.849936e-06 9.748781e-01 3.816477e-08 -5.739238e-06 2.867394e-01
0.105          3.302572e-07 -7.951962e-06 1.233077e+00 3.053083e-07 -1.974614e-06 9.547104e-01 2.494898e-08 -5.977348e-06 2.783669e-01
0.1125         2.906854e-07 -8.330302e-06 1.207503e+00 2.761115e-07 -2.142669e-06 9.366233e-01 1.457392e-08 -6.187633e-06 2.708794e-01
0.12           2.603784e-07 -8.660359e-06 1.184614e+00 2.530548e-07 -2.279729e-06 9.204811e-01 7.323627e-09 -6.380629e-06 2.641332e-01
0.1275         2.331400e-07 -8.941254e-06 1.163918e+00 2.305806e-07 -2.388491e-06 9.059014e-01 2.559350e-09 -6.552763e-06 2.580169e-01
0.135          2.142989e-07 -9.184835e-06 1.145213e+00 2.146417e-07 -2.477076e-06 8.927720e-01 -3.427931e-10 -6.707760e-06 2.524413e-01
0.1425         2.172212e-07 -9.376821e-06 1.127925e+00 2.169674e-07 -2.472044e-06 8.806019e-01 2.537552e-10 -6.904777e-06 2.473228e-01
0.15           1.861205e-07 -9.600939e-06 1.112374e+00 1.866591e-07 -2.524808e-06 8.697603e-01 -5.385972e-10 -7.076132e-06 2.426140e-01
0.1575         1.782668e-07 -9.778093e-06 1.098142e+00 1.804530e-07 -2.580494e-06 8.598745e-01 -2.186176e-09 -7.197599e-06 2.382674e-01
0.165          1.762522e-07 -1.006065e-05 1.085027e+00 1.796598e-07 -2.755266e-06 8.507906e-01 -3.407582e-09 -7.305383e-06 2.342368e-01
0.1725         -6.626346e-08 -9.947952e-06 1.072944e+00 -5.616486e-08 -2.592305e-06 8.424590e-01 -1.009860e-08 -7.355647e-06 2.304850e-01
0.18           -5.067721e-08 -1.030001e-05 1.061727e+00 -3.788251e-08 -2.886140e-06 8.347459e-01 -1.279469e-08 -7.413874e-06 2.269812e-01
0.1875         -4.288848e-08 -1.035760e-05 1.051316e+00 -3.163645e-08 -2.885324e-06 8.276132e-01 -1.125204e-08 -7.472278e-06 2.237025e-01
0.195          -3.966292e-08 -1.041455e-05 1.041626e+00 -2.950745e-08 -2.901153e-06 8.210020e-01 -1.015547e-08 -7.513395e-06 2.206244e-01
0.2025         -2.495525e-08 -1.050116e-05 1.032616e+00 -1.701355e-08 -2.953631e-06 8.148916e-01 -7.941705e-09 -7.547526e-06 2.177242e-01
0.21           -1.929905e-08 -1.053557e-05 1.024155e+00 -1.340764e-08 -2.963374e-06 8.091682e-01 -5.891405e-09 -7.572196e-06 2.149864e-01
0.2175         -1.324651e-08 -1.054957e-05 1.016217e+00 -9.011595e-09 -2.965930e-06 8.038201e-01 -4.234914e-09 -7.583638e-06 2.123973e-01
0.225          -6.347971e-09 -1.060942e-05 1.008704e+00 -3.831997e-09 -3.013905e-06 7.987579e-01 -2.515973e-09 -7.595515e-06 2.099459e-01
0.2325         1.383503e-08 -1.070428e-05 1.001706e+00 1.275724e-08 -3.088752e-06 7.940865e-01 1.077798e-09 -7.615528e-06 2.076198e-01
0.24           1.105822e-08 -1.067433e-05 9.949877e-01 7.681473e-09 -3.051805e-06 7.895802e-01 3.376747e-09 -7.622524e-06 2.054075e-01
0.2475         1.944874e-08 -1.072006e-05 9.886739e-01 1.421805e-08 -3.093710e-06 7.853732e-01 5.230687e-09 -7.626351e-06 2.033007e-01
0.255          2.689689e-08 -1.071981e-05 9.826976e-01 1.952884e-08 -3.094725e-06 7.814045e-01 7.368049e-09 -7.625082e-06 2.012931e-01
0.2625         3.318246e-08 -1.072976e-05 9.770196e-01 2.369859e-08 -3.106694e-06 7.776428e-01 9.483876e-09 -7.623064e-06 1.993768e-01
0.27           4.447598e-08 -1.075310e-05 9.716095e-01 3.231557e-08 -3.132006e-06 7.740646e-01 1.216041e-08 -7.621097e-06 1.975449e-01
0.2775         5.361402e-08 -1.075399e-05 9.664374e-01 3.825680e-08 -3.136466e-06 7.706456e-01 1.535721e-08 -7.617525e-06 1.957918e-01
0.285          5.463300e-08 -1.083801e-05 9.615773e-01 3.730980e-08 -3.213924e-06 7.674675e-01 1.732320e-08 -7.624083e-06 1.941099e-01
0.2925         6.705228e-08 -1.081951e-05 9.568778e-01 4.723355e-08 -3.194937e-06 7.643830e-01 1.981873e-08 -7.624569e-06 1.924948e-01
0.3            7.053299e-08 -1.077052e-05 9.523819e-01 4.804336e-08 -3.157845e-06 7.614382e-01 2.248963e-08 -7.612671e-06 1.909437e-01
0.3075         8.097461e-08 -1.084263e-05 9.480434e-01 5.600159e-08 -3.234218e-06 7.585920e-01 2.497301e-08 -7.608408e-06 1.894514e-01
0.315          8.377916e-08 -1.076700e-05 9.438804e-01 5.650110e-08 -3.170364e-06 7.558643e-01 2.727805e-08 -7.596641e-06 1.880161e-01
0.3225         9.512005e-08 -1.081100e-05 9.399446e-01 6.460858e-08 -3.221617e-06 7.533101e-01 3.051147e-08 -7.589386e-06 1.866344e-01
0.33           9.672989e-08 -1.084198e-05 9.361436e-01 6.390569e-08 -3.253090e-06 7.508416e-01 3.282420e-08 -7.588894e-06 1.853020e-01
0.3375         1.057007e-07 -1.079857e-05 9.324660e-01 7.031669e-08 -3.217926e-06 7.484492e-01 3.538403e-08 -7.580646e-06 1.840168e-01
0.345          1.114802e-07 -1.072750e-05 9.289638e-01 7.333482e-08 -3.166851e-06 7.461880e-01 3.814539e-08 -7.560645e-06 1.827757e-01
0.3525         1.127416e-07 -1.078693e-05 9.255438e-01 7.312047e-08 -3.236259e-06 7.439667e-01 3.962114e-08 -7.550666e-06 1.815771e-01
0.36           1.248797e-07 -1.080237e-05 9.222281e-01 8.226624e-08 -3.253255e-06 7.418097e-01 4.261350e-08 -7.549112e-06 1.804184e-01
0.3675         1.227865e-07 -1.072576e-05 9.190310e-01 7.836338e-08 -3.192718e-06 7.397335e-01 4.442309e-08 -7.533044e-06 1.792975e-01
0.375          1.306642e-07 -1.074850e-05 9.159369e-01 8.442577e-08 -3.228592e-06 7.377240e-01 4.623842e-08 -7.519908e-06 1.782129e-01
0.3825         1.368649e-07 -1.071852e-05 9.129375e-01 8.802451e-08 -3.209706e-06 7.357759e-01 4.884041e-08 -7.508814e-06 1.771616e-01
0.39           1.386249e-07 -1.064447e-05 9.100185e-01 8.790333e-08 -3.157472e-06 7.338757e-01 5.072159e-08 -7.487002e-06 1.761428e-01
0.3975         1.452016e-07 -1.073097e-05 9.071761e-01 9.244015e-08 -3.249775e-06 7.320211e-01 5.276143e-08 -7.481195e-06 1.751550e-01
0.405          1.491150e-07 -1.063484e-05 9.044212e-01 9.425050e-08 -3.167577e-06 7.302246e-01 5.486453e-08 -7.467258e-06 1.741966e-01
0.4125         1.500395e-07 -1.059884e-05 9.017865e-01 9.353996e-08 -3.153884e-06 7.285204e-01 5.649954e-08 -7.444956e-06 1.732661e-01
0.42           1.568539e-07 -1.061907e-05 8.992218e-01 9.847760e-08 -3.185638e-06 7.268596e-01 5.837630e-08 -7.433434e-06 1.723622e-01
0.4275         1.635702e-07 -1.062413e-05 8.967021e-01 1.027607e-07 -3.196776e-06 7.252187e-01 6.080951e-08 -7.427358e-06 1.714833e-01
0.435          1.617226e-07 -1.058241e-05 8.942405e-01 9.943180e-08 -3.165819e-06 7.236118e-01 6.229085e-08 -7.416595e-06 1.706287e-01
0.4425         1.676953e-07 -1.051985e-05 8.918337e-01 1.040382e-07 -3.123552e-06 7.220365e-01 6.365711e-08 -7.396296e-06 1.697973e-01
0.45           1.685963e-07 -1.050000e-05 8.895101e-01 1.032715e-07 -3.128907e-06 7.205221e-01 6.532486e-08 -7.371089e-06 1.689880e-01
0.4575         1.732914e-07 -1.051013e-05 8.872361e-01 1.063228e-07 -3.152656e-06 7.190361e-01 6.696855e-08 -7.357471e-06 1.681999e-01
0.465          1.786021e-07 -1.047752e-05 8.850060e-01 1.096698e-07 -3.132004e-06 7.175738e-01 6.893232e-08 -7.345514e-06 1.674322e-01
0.4725         1.831352e-07 -1.043454e-05 8.828338e-01 1.120722e-07 -3.106472e-06 7.161497e-01 7.106305e-08 -7.328068e-06 1.666841e-01
0.48           1.839748e-07 -1.039739e-05 8.807058e-01 1.112910e-07 -3.088757e-06 7.147510e-01 7.268376e-08 -7.308634e-06 1.659548e-01
0.4875         1.826522e-07 -1.034932e-05 8.786187e-01 1.090712e-07 -3.070930e-06 7.133753e-01 7.358103e-08 -7.278392e-06 1.652434e-01
0.495          1.882921e-07 -1.036307e-05 8.766147e-01 1.133125e-07 -3.096875e-06 7.120650e-01 7.497959e-08 -7.266198e-06 1.645497e-01
0.5025         1.929224e-07 -1.031116e-05 8.746243e-01 1.161506e-07 -3.058526e-06 7.107514e-01 7.677179e-08 -7.252633e-06 1.638729e-01
0.51           1.938037e-07 -1.026418e-05 8.726774e-01 1.155566e-07 -3.033209e-06 7.094657e-01 7.824704e-08 -7.230974e-06 1.632117e-01
0.5175         1.966519e-07 -1.029264e-05 8.707629e-01 1.170468e-07 -3.073346e-06 7.081971e-01 7.960507e-08 -7.219298e-06 1.625659e-01
0.525          1.987686e-07 -1.017942e-05 8.688931e-01 1.178238e-07 -2.983280e-06 7.069579e-01 8.094479e-08 -7.196139e-06 1.619352e-01
0.5325         2.010707e-07 -1.018078e-05 8.670563e-01 1.188415e-07 -3.005741e-06 7.057379e-01 8.222918e-08 -7.175041e-06 1.613184e-01
0.54           2.029242e-07 -1.018915e-05 8.652537e-01 1.194324e-07 -3.025304e-06 7.045381e-01 8.349185e-08 -7.163843e-06 1.607157e-01
0.5475         2.034004e-07 -1.012851e-05 8.634918e-01 1.188698e-07 -2.981334e-06 7.033651e-01 8.453063e-08 -7.147177e-06 1.601268e-01
0.555          2.083943e-07 -1.010287e-05 8.617560e-01 1.224726e-07 -2.974495e-06 7.022051e-01 8.592170e-08 -7.128379e-06 1.595508e-01
0.5625         2.102319e-07 -1.004100e-05 8.600474e-01 1.228311e-07 -2.934457e-06 7.010604e-01 8.740082e-08 -7.106545e-06 1.589870e-01
0.57           2.107486e-07 -1.003296e-05 8.583725e-01 1.222328e-07 -2.944894e-06 6.999373e-01 8.851574e-08 -7.088067e-06 1.584352e-01
0.5775         2.090788e-07 -9.955491e-06 8.567313e-01 1.200568e-07 -2.890821e-06 6.988360e-01 8.902204e-08 -7.064670e-06 1.578953e-01
0.585          2.144714e-07 -9.960047e-06 8.551203e-01 1.243293e-07 -2.914187e-06 6.977536e-01 9.014207e-08 -7.045859e-06 1.573667e-01
0.5925         2.168463e-07 -9.935802e-06 8.535226e-01 1.253108e-07 -2.904664e-06 6.966738e-01 9.153556e-08 -7.031138e-06 1.568488e-01
0.6            2.161527e-07 -9.836530e-06 8.519559e-01 1.236846e-07 -2.832112e-06 6.956147e-01 9.246801e-08 -7.004418e-06 1.563412e-01
0.6075         2.187956e-07 -9.818286e-06 8.504153e-01 1.253309e-07 -2.838074e-06 6.945714e-01 9.346470e-08 -6.980212e-06 1.558438e-01
0.615          2.186982e-07 -9.831806e-06 8.489024e-01 1.244188e-07 -2.865454e-06 6.935461e-01 9.427941e-08 -6.966352e-06 1.553563e-01
0.6225         2.235254e-07 -9.757246e-06 8.474077e-01 1.279567e-07 -2.810945e-06 6.925293e-01 9.556866e-08 -6.946301e-06 1.548784e-01
0.63           2.218416e-07 -9.662743e-06 8.459367e-01 1.254082e-07 -2.747562e-06 6.915269e-01 9.643338e-08 -6.915181e-06 1.544097e-01
0.6375         2.241135e-07 -9.733940e-06 8.444892e-01 1.268126e-07 -2.832172e-06 6.905392e-01 9.730087e-08 -6.901768e-06 1.539501e-01
0.645          2.269889e-07 -9.675298e-06 8.430627e-01 1.285180e-07 -2.787698e-06 6.895634e-01 9.847089e-08 -6.887600e-06 1.534992e-01
0.6525         2.262675e-07 -9.577345e-06 8.416571e-01 1.269883e-07 -2.717990e-06 6.886001e-01 9.927924e-08 -6.859356e-06 1.530570e-01
0.66           2.264609e-07 -9.540051e-06 8.402759e-01 1.266733e-07 -2.708085e-06 6.876528e-01 9.978761e-08 -6.831965e-06 1.526230e-01
0.6675         2.288837e-07 -9.546810e-06 8.389194e-01 1.284777e-07 -2.733242e-06 6.867222e-01 1.004059e-07 -6.813568e-06 1.521972e-01
0.675          2.302162e-07 -9.467606e-06 8.375732e-01 1.286217e-07 -2.676613e-06 6.857942e-01 1.015944e-07 -6.790993e-06 1.517791e-01
0.6825         2.294856e-07 -9.432023e-06 8.362155e-01 1.269437e-07 -2.665670e-06 6.848480e-01 1.025419e-07 -6.766353e-06 1.513675e-01
0.69           2.325017e-07 -9.419548e-06 8.349067e-01 1.293413e-07 -2.672504e-06 6.839434e-01 1.031604e-07 -6.747043e-06 1.509632e-01
0.6975         3.790525e-07 -9.257901e-06 8.281150e-01 2.741550e-07 -2.707413e-06 6.774082e-01 1.048975e-07 -6.550488e-06 1.507067e-01
0.705          3.365422e-07 -9.068124e-06 8.276393e-01 2.326300e-07 -2.723527e-06 6.771532e-01 1.039122e-07 -6.344597e-06 1.504862e-01
0.7125         3.363940e-07 -8.884237e-06 8.267818e-01 2.346839e-07 -2.682499e-06 6.765428e-01 1.017101e-07 -6.201739e-06 1.502390e-01
0.72           3.316332e-07 -8.721122e-06 8.259515e-01 2.317124e-07 -2.639725e-06 6.759672e-01 9.992081e-08 -6.081398e-06 1.499842e-01
0.7275         3.268844e-07 -8.551926e-06 8.250886e-01 2.288917e-07 -2.581205e-06 6.753632e-01 9.799267e-08 -5.970721e-06 1.497254e-01
0.735          3.232641e-07 -8.401283e-06 8.242144e-01 2.270425e-07 -2.533914e-06 6.747503e-01 9.622159e-08 -5.867369e-06 1.494641e-01
0.7425         3.204537e-07 -8.235286e-06 8.233446e-01 2.259094e-07 -2.468473e-06 6.741428e-01 9.454425e-08 -5.766812e-06 1.492018e-01
0.75           3.154461e-07 -8.182859e-06 8.224727e-01 2.226350e-07 -2.498849e-06 6.735333e-01 9.281102e-08 -5.684010e-06 1.489394e-01
0.7575         3.128055e-07 -7.965627e-06 8.216080e-01 2.215854e-07 -2.371613e-06 6.729304e-01 9.122013e-08 -5.594014e-06 1.486776e-01
0.765          3.106517e-07 -7.838559e-06 8.207301e-01 2.207180e-07 -2.335479e-06 6.723137e-01 8.993366e-08 -5.503081e-06 1.484164e-01
0.7725         3.012814e-07 -7.713181e-06 8.198424e-01 2.130811e-07 -2.295470e-06 6.716864e-01 8.820029e-08 -5.417711e-06 1.481560e-01
0.78           3.033318e-07 -7.628166e-06 8.189872e-01 2.166779e-07 -2.285304e-06 6.710899e-01 8.665392e-08 -5.342862e-06 1.478973e-01
0.7875         2.979049e-07 -7.499047e-06 8.181151e-01 2.124526e-07 -2.229773e-06 6.704748e-01 8.545230e-08 -5.269274e-06 1.476403e-01
0.795          2.963403e-07 -7.369755e-06 8.172573e-01 2.122467e-07 -2.176365e-06 6.698724e-01 8.409365e-08 -5.193390e-06 1.473849e-01
0.8025         2.930191e-07 -7.255462e-06 8.164022e-01 2.102034e-07 -2.136430e-06 6.692708e-01 8.281567e-08 -5.119033e-06 1.471314e-01
0.81           2.890889e-07 -7.141999e-06 8.155533e-01 2.075410e-07 -2.094983e-06 6.686734e-01 8.154782e-08 -5.047016e-06 1.468798e-01
0.8175         2.865119e-07 -7.048980e-06 8.147079e-01 2.062145e-07 -2.069631e-06 6.680776e-01 8.029741e-08 -4.979349e-06 1.466302e-01
0.825          2.830316e-07 -6.902188e-06 8.138672e-01 2.039983e-07 -1.994628e-06 6.674845e-01 7.903326e-08 -4.907560e-06 1.463827e-01
0.8325         2.786988e-07 -6.859395e-06 8.130346e-01 2.011050e-07 -2.013904e-06 6.668971e-01 7.759377e-08 -4.845491e-06 1.461375e-01
0.84           2.770062e-07 -6.729757e-06 8.122035e-01 2.006165e-07 -1.946681e-06 6.663090e-01 7.638969e-08 -4.783076e-06 1.458945e-01
0.8475         2.727446e-07 -6.596041e-06 8.113792e-01 1.976072e-07 -1.882064e-06 6.657256e-01 7.513736e-08 -4.713978e-06 1.456535e-01
0.855          2.715929e-07 -6.523946e-06 8.105547e-01 1.974826e-07 -1.872886e-06 6.651400e-01 7.411033e-08 -4.651060e-06 1.454146e-01
0.8625         2.672397e-07 -6.390412e-06 8.097397e-01 1.942885e-07 -1.804295e-06 6.645617e-01 7.295128e-08 -4.586117e-06 1.451779e-01
0.87           2.645010e-07 -6.282680e-06 8.089283e-01 1.927290e-07 -1.763026e-06 6.639849e-01 7.177201e-08 -4.519655e-06 1.449434e-01
0.8775         2.629111e-07 -6.227498e-06 8.081222e-01 1.920974e-07 -1.765504e-06 6.634110e-01 7.081375e-08 -4.461995e-06 1.447111e-01
0.885          2.599504e-07 -6.130478e-06 8.073204e-01 1.900656e-07 -1.724112e-06 6.628394e-01 6.988475e-08 -4.406366e-06 1.444810e-01
0.8925         2.571226e-07 -6.044268e-06 8.065263e-01 1.882084e-07 -1.693600e-06 6.622732e-01 6.891419e-08 -4.350668e-06 1.442530e-01
0.9            2.537628e-07 -5.936481e-06 8.057374e-01 1.859249e-07 -1.644139e-06 6.617100e-01 6.783794e-08 -4.292342e-06 1.440273e-01
0.9075         2.518302e-07 -5.841779e-06 8.049535e-01 1.849823e-07 -1.607708e-06 6.611497e-01 6.684787e-08 -4.234071e-06 1.438038e-01
0.915          2.502116e-07 -5.800101e-06 8.041791e-01 1.840942e-07 -1.615895e-06 6.605966e-01 6.611739e-08 -4.184205e-06 1.435825e-01
0.9225         2.462166e-07 -5.678583e-06 8.033970e-01 1.810781e-07 -1.548791e-06 6.600338e-01 6.513845e-08 -4.129792e-06 1.433632e-01
0.93           2.448289e-07 -5.612116e-06 8.026288e-01 1.805517e-07 -1.535015e-06 6.594828e-01 6.427722e-08 -4.077101e-06 1.431460e-01
0.9375         2.426009e-07 -5.521719e-06 8.018698e-01 1.790609e-07 -1.496300e-06 6.589387e-01 6.354003e-08 -4.025419e-06 1.429311e-01
0.945          2.390024e-07 -5.446607e-06 8.011031e-01 1.763826e-07 -1.472285e-06 6.583850e-01 6.261977e-08 -3.974321e-06 1.427181e-01
0.9525         2.380151e-07 -5.354661e-06 8.003533e-01 1.761494e-07 -1.431982e-06 6.578459e-01 6.186569e-08 -3.922679e-06 1.425073e-01
0.96           2.344182e-07 -5.280546e-06 7.996073e-01 1.733771e-07 -1.408301e-06 6.573086e-01 6.104109e-08 -3.872245e-06 1.422988e-01
0.9675         2.324561e-07 -5.205072e-06 7.988684e-01 1.722752e-07 -1.381885e-06 6.567761e-01 6.018087e-08 -3.823187e-06 1.420923e-01
0.975          2.313211e-07 -5.125190e-06 7.981251e-01 1.717905e-07 -1.350324e-06 6.562375e-01 5.953065e-08 -3.774866e-06 1.418876e-01
0.9825         2.294992e-07 -5.091551e-06 7.973912e-01 1.705512e-07 -1.358834e-06 6.557065e-01 5.894799e-08 -3.732718e-06 1.416847e-01
0.99           2.266654e-07 -4.984984e-06 7.966655e-01 1.684193e-07 -1.298656e-06 6.551817e-01 5.824610e-08 -3.686328e-06 1.414838e-01
0.9975         2.253050e-07 -4.921110e-06 7.959421e-01 1.677064e-07 -1.281542e-06 6.546572e-01 5.759862e-08 -3.639568e-06 1.412848e-01
1.005          2.222696e-07 -4.851784e-06 7.952250e-01 1.654061e-07 -1.257255e-06 6.541373e-01 5.686352e-08 -3.594528e-06 1.410877e-01
1.0125         2.211075e-07 -4.775478e-06 7.945140e-01 1.648870e-07 -1.225687e-06 6.536216e-01 5.622051e-08 -3.549790e-06 1.408924e-01
1.02           2.188589e-07 -4.719639e-06 7.938057e-01 1.632038e-07 -1.212825e-06 6.531065e-01 5.565508e-08 -3.506813e-06 1.406991e-01
1.0275         2.167848e-07 -4.627028e-06 7.931047e-01 1.617496e-07 -1.165871e-06 6.525968e-01 5.503514e-08 -3.461158e-06 1.405079e-01
1.035          2.139309e-07 -4.591660e-06 7.924088e-01 1.596461e-07 -1.171398e-06 6.520903e-01 5.428482e-08 -3.420261e-06 1.403185e-01
1.0425         2.142954e-07 -4.504022e-06 7.917135e-01 1.603850e-07 -1.126483e-06 6.515825e-01 5.391043e-08 -3.377539e-06 1.401310e-01
1.05           2.115383e-07 -4.456549e-06 7.910276e-01 1.581096e-07 -1.119717e-06 6.510824e-01 5.342875e-08 -3.336832e-06 1.399452e-01
1.0575         2.088987e-07 -4.408930e-06 7.903435e-01 1.561139e-07 -1.109202e-06 6.505822e-01 5.278478e-08 -3.299728e-06 1.397613e-01
1.065          2.082062e-07 -4.312350e-06 7.896679e-01 1.559008e-07 -1.055348e-06 6.500888e-01 5.230543e-08 -3.257002e-06 1.395791e-01
1.0725         2.059093e-07 -4.259896e-06 7.889940e-01 1.541206e-07 -1.044372e-06 6.495954e-01 5.178873e-08 -3.215525e-06 1.393986e-01
1.08           2.052408e-07 -4.203014e-06 7.883257e-01 1.538456e-07 -1.026514e-06 6.491058e-01 5.139520e-08 -3.176500e-06 1.392199e-01
1.0875         2.030560e-07 -4.161697e-06 7.876617e-01 1.520854e-07 -1.021004e-06 6.486188e-01 5.097059e-08 -3.140692e-06 1.390429e-01
1.095          2.020832e-07 -4.078498e-06 7.870025e-01 1.514938e-07 -9.772166e-07 6.481350e-01 5.058937e-08 -3.101281e-06 1.388675e-01
1.1025         2.000627e-07 -4.028669e-06 7.863462e-01 1.498984e-07 -9.661035e-07 6.476525e-01 5.016434e-08 -3.062566e-06 1.386938e-01
1.11           1.980258e-07 -3.993288e-06 7.856991e-01 1.483609e-07 -9.643573e-07 6.471774e-01 4.966481e-08 -3.028930e-06 1.385217e-01
1.1175         1.972965e-07 -3.911493e-06 7.850542e-01 1.480340e-07 -9.198690e-07 6.467029e-01 4.926244e-08 -2.991624e-06 1.383513e-01
1.125          1.960052e-07 -3.862206e-06 7.844158e-01 1.469874e-07 -9.083446e-07 6.462333e-01 4.901774e-08 -2.953861e-06 1.381825e-01
1.1325         1.937843e-07 -3.800749e-06 7.837737e-01 1.451276e-07 -8.841754e-07 6.457585e-01 4.865666e-08 -2.916574e-06 1.380151e-01
1.14           1.932217e-07 -3.759555e-06 7.831440e-01 1.449524e-07 -8.771160e-07 6.452946e-01 4.826925e-08 -2.882439e-06 1.378493e-01
1.1475         1.926411e-07 -3.712745e-06 7.825162e-01 1.445041e-07 -8.632473e-07 6.448312e-01 4.813691e-08 -2.849498e-06 1.376850e-01
1.155          1.893678e-07 -3.638370e-06 7.818827e-01 1.416765e-07 -8.252380e-07 6.443607e-01 4.769126e-08 -2.813132e-06 1.375220e-01
1.1625         1.899600e-07 -3.602608e-06 7.812639e-01 1.425093e-07 -8.235091e-07 6.439034e-01 4.745072e-08 -2.779099e-06 1.373605e-01
1.17           1.864745e-07 -3.557675e-06 7.806567e-01 1.395050e-07 -8.101730e-07 6.434559e-01 4.696960e-08 -2.747502e-06 1.372008e-01
1.1775         1.874687e-07 -3.505396e-06 7.800395e-01 1.406997e-07 -7.900372e-07 6.429971e-01 4.676898e-08 -2.715358e-06 1.370424e-01
1.185          1.851387e-07 -3.459032e-06 7.794350e-01 1.385990e-07 -7.758377e-07 6.425495e-01 4.653970e-08 -2.683195e-06 1.368854e-01
1.1925         1.842844e-07 -3.427040e-06 7.788331e-01 1.380078e-07 -7.731361e-07 6.421031e-01 4.627657e-08 -2.653904e-06 1.367299e-01
1.2            1.828604e-07 -3.357962e-06 7.782365e-01 1.368452e-07 -7.364237e-07 6.416607e-01 4.601522e-08 -2.621539e-06 1.365759e-01
1.2075         1.819123e-07 -3.313936e-06 7.776395e-01 1.361344e-07 -7.249447e-07 6.412164e-01 4.577799e-08 -2.588992e-06 1.364231e-01
1.215          1.804224e-07 -3.265169e-06 7.770493e-01 1.349053e-07 -7.076243e-07 6.407776e-01 4.551709e-08 -2.557544e-06 1.362717e-01
1.2225         1.797456e-07 -3.204880e-06 7.764638e-01 1.344303e-07 -6.805396e-07 6.403422e-01 4.531529e-08 -2.524341e-06 1.361217e-01
1.23           1.789141e-07 -3.175662e-06 7.758820e-01 1.337340e-07 -6.814797e-07 6.399090e-01 4.518005e-08 -2.494182e-06 1.359730e-01
1.2375         1.772139e-07 -3.133894e-06 7.753034e-01 1.322708e-07 -6.681575e-07 6.394778e-01 4.494311e-08 -2.465736e-06 1.358256e-01
1.245          1.768472e-07 -3.070050e-06 7.747306e-01 1.320686e-07 -6.360939e-07 6.390512e-01 4.477869e-08 -2.433956e-06 1.356795e-01
1.2525         1.754152e-07 -3.044751e-06 7.741576e-01 1.308202e-07 -6.396914e-07 6.386230e-01 4.459495e-08 -2.405060e-06 1.355346e-01
1.26           1.737435e-07 -3.013027e-06 7.735927e-01 1.294458e-07 -6.338115e-07 6.382016e-01 4.429777e-08 -2.379215e-06 1.353910e-01
1.2675         1.737976e-07 -2.954854e-06 7.730295e-01 1.296337e-07 -6.044889e-07 6.377808e-01 4.416391e-08 -2.350365e-06 1.352487e-01
1.275          1.725533e-07 -2.906577e-06 7.724704e-01 1.285066e-07 -5.865592e-07 6.373627e-01 4.404667e-08 -2.320018e-06 1.351076e-01
1.2825         1.714127e-07 -2.888014e-06 7.719151e-01 1.275481e-07 -5.940266e-07 6.369474e-01 4.386464e-08 -2.293987e-06 1.349677e-01
1.29           1.703276e-07 -2.838681e-06 7.713632e-01 1.266603e-07 -5.710122e-07 6.365342e-01 4.366739e-08 -2.267669e-06 1.348290e-01
1.2975         1.699537e-07 -2.797306e-06 7.708166e-01 1.263831e-07 -5.570862e-07 6.361251e-01 4.357059e-08 -2.240220e-06 1.346914e-01
1.305          1.689623e-07 -2.751861e-06 7.702718e-01 1.254920e-07 -5.396439e-07 6.357168e-01 4.347026e-08 -2.212217e-06 1.345551e-01
1.3125         1.676396e-07 -2.723858e-06 7.697297e-01 1.243528e-07 -5.373903e-07 6.353099e-01 4.328674e-08 -2.186467e-06 1.344198e-01
1.32           1.670248e-07 -2.665773e-06 7.691937e-01 1.238871e-07 -5.073702e-07 6.349080e-01 4.313769e-08 -2.158403e-06 1.342857e-01
1.3275         1.661764e-07 -2.626759e-06 7.686621e-01 1.231437e-07 -4.964674e-07 6.345095e-01 4.303267e-08 -2.130291e-06 1.341527e-01
1.335          1.649561e-07 -2.610533e-06 7.681326e-01 1.220848e-07 -5.040272e-07 6.341118e-01 4.287123e-08 -2.106506e-06 1.340208e-01
1.3425         1.647392e-07 -2.556368e-06 7.676051e-01 1.219529e-07 -4.754864e-07 6.337151e-01 4.278639e-08 -2.080881e-06 1.338900e-01
1.35           1.635399e-07 -2.531405e-06 7.670829e-01 1.208641e-07 -4.753651e-07 6.333227e-01 4.267581e-08 -2.056040e-06 1.337602e-01
1.3575         1.634874e-07 -2.480446e-06 7.665641e-01 1.208384e-07 -4.504763e-07 6.329326e-01 4.264902e-08 -2.029969e-06 1.336315e-01
1.365          1.619897e-07 -2.455356e-06 7.660467e-01 1.194692e-07 -4.499254e-07 6.325429e-01 4.252056e-08 -2.005430e-06 1.335038e-01
1.3725         1.614261e-07 -2.419884e-06 7.655370e-01 1.190190e-07 -4.379995e-07 6.321599e-01 4.240712e-08 -1.981884e-06 1.333771e-01
1.38           1.610505e-07 -2.366719e-06 7.650287e-01 1.186765e-07 -4.113520e-07 6.317772e-01 4.237408e-08 -1.955367e-06 1.332515e-01
1.3875         1.586479e-07 -2.352325e-06 7.645266e-01 1.165673e-07 -4.199580e-07 6.313998e-01 4.208060e-08 -1.932367e-06 1.331269e-01
1.395          1.597851e-07 -2.312444e-06 7.640245e-01 1.176722e-07 -4.031940e-07 6.310213e-01 4.211292e-08 -1.909250e-06 1.330032e-01
1.4025         1.575606e-07 -2.270376e-06 7.635214e-01 1.154597e-07 -3.862385e-07 6.306409e-01 4.210097e-08 -1.884138e-06 1.328805e-01
1.41           1.576156e-07 -2.248014e-06 7.630167e-01 1.156039e-07 -3.865281e-07 6.302577e-01 4.201169e-08 -1.861486e-06 1.327590e-01
1.4175         1.568160e-07 -2.214106e-06 7.625256e-01 1.148426e-07 -3.747617e-07 6.298869e-01 4.197339e-08 -1.839344e-06 1.326387e-01
1.425          1.554119e-07 -2.198455e-06 7.620414e-01 1.134475e-07 -3.798728e-07 6.295219e-01 4.196438e-08 -1.818583e-06 1.325195e-01
1.4325         1.548767e-07 -2.153444e-06 7.615472e-01 1.129623e-07 -3.571952e-07 6.291456e-01 4.191442e-08 -1.796249e-06 1.324016e-01
1.44           1.544049e-07 -2.118254e-06 7.610615e-01 1.125389e-07 -3.451379e-07 6.287764e-01 4.186602e-08 -1.773116e-06 1.322851e-01
1.4475         1.538043e-07 -2.093111e-06 7.605820e-01 1.119700e-07 -3.415923e-07 6.284123e-01 4.183432e-08 -1.751518e-06 1.321697e-01
1.455          1.528874e-07 -2.048695e-06 7.601037e-01 1.111295e-07 -3.201901e-07 6.280485e-01 4.175789e-08 -1.728505e-06 1.320552e-01
1.4625         1.523651e-07 -2.023534e-06 7.596295e-01 1.106721e-07 -3.172123e-07 6.276878e-01 4.169300e-08 -1.706321e-06 1.319417e-01
1.47           1.516057e-07 -1.998898e-06 7.591587e-01 1.099770e-07 -3.130133e-07 6.273296e-01 4.162869e-08 -1.685885e-06 1.318291e-01
1.4775         1.230364e-07 -1.886806e-06 7.586868e-01 8.087909e-08 -2.195367e-07 6.269694e-01 4.215734e-08 -1.667269e-06 1.317174e-01
1.485          1.226638e-07 -1.850743e-06 7.582220e-01 8.009398e-08 -2.033861e-07 6.266153e-01 4.256984e-08 -1.647357e-06 1.316066e-01
1.4925         1.221519e-07 -1.827791e-06 7.577604e-01 7.933985e-08 -2.001192e-07 6.262636e-01 4.281204e-08 -1.627672e-06 1.314968e-01
1.5            1.231193e-07 -1.807887e-06 7.573020e-01 7.991084e-08 -1.980075e-07 6.259141e-01 4.320851e-08 -1.609880e-06 1.313879e-01
1.5075         1.235734e-07 -1.763626e-06 7.568467e-01 7.982776e-08 -1.743234e-07 6.255668e-01 4.374568e-08 -1.589302e-06 1.312799e-01
1.515          1.229669e-07 -1.761201e-06 7.563885e-01 7.890711e-08 -1.889623e-07 6.252159e-01 4.405984e-08 -1.572238e-06 1.311726e-01
1.5225         1.228758e-07 -1.720668e-06 7.559405e-01 7.860024e-08 -1.666263e-07 6.248743e-01 4.427560e-08 -1.554042e-06 1.310663e-01
1.53           1.231313e-07 -1.711573e-06 7.554931e-01 7.855304e-08 -1.745692e-07 6.245322e-01 4.457823e-08 -1.537004e-06 1.309609e-01
1.5375         1.229700e-07 -1.678446e-06 7.550435e-01 7.793751e-08 -1.599320e-07 6.241874e-01 4.503247e-08 -1.518514e-06 1.308561e-01
1.545          1.226521e-07 -1.640352e-06 7.546009e-01 7.745468e-08 -1.417783e-07 6.238489e-01 4.519740e-08 -1.498574e-06 1.307521e-01
1.5525         1.229174e-07 -1.625651e-06 7.541612e-01 7.752153e-08 -1.449471e-07 6.235124e-01 4.539586e-08 -1.480704e-06 1.306489e-01
1.56           1.219504e-07 -1.603806e-06 7.537236e-01 7.641682e-08 -1.399228e-07 6.231771e-01 4.553358e-08 -1.463883e-06 1.305465e-01
1.5675         1.226262e-07 -1.582342e-06 7.532895e-01 7.689351e-08 -1.351687e-07 6.228446e-01 4.573266e-08 -1.447174e-06 1.304449e-01
1.575          1.221574e-07 -1.549119e-06 7.528576e-01 7.617750e-08 -1.202395e-07 6.225135e-01 4.597990e-08 -1.428880e-06 1.303441e-01
1.5825         1.217706e-07 -1.537157e-06 7.524275e-01 7.567626e-08 -1.247252e-07 6.221834e-01 4.609431e-08 -1.412432e-06 1.302440e-01
1.59           1.222024e-07 -1.500985e-06 7.520010e-01 7.591509e-08 -1.062784e-07 6.218563e-01 4.628727e-08 -1.394706e-06 1.301447e-01
1.5975         1.217607e-07 -1.481283e-06 7.515760e-01 7.524598e-08 -1.043987e-07 6.215298e-01 4.651474e-08 -1.376885e-06 1.300462e-01
1.605          1.211684e-07 -1.453153e-06 7.511498e-01 7.451059e-08 -9.423283e-08 6.212016e-01 4.665783e-08 -1.358921e-06 1.299482e-01
1.6125         1.213541e-07 -1.432432e-06 7.507355e-01 7.464832e-08 -9.021826e-08 6.208845e-01 4.670576e-08 -1.342214e-06 1.298510e-01
1.62           1.208440e-07 -1.409181e-06 7.503194e-01 7.405006e-08 -8.363375e-08 6.205648e-01 4.679398e-08 -1.325547e-06 1.297546e-01
1.6275         1.211370e-07 -1.376485e-06 7.499052e-01 7.417728e-08 -6.905893e-08 6.202462e-01 4.695969e-08 -1.307426e-06 1.296590e-01
1.635          1.206678e-07 -1.364641e-06 7.494945e-01 7.360251e-08 -7.344847e-08 6.199305e-01 4.706532e-08 -1.291192e-06 1.295640e-01
1.6425         1.196878e-07 -1.346915e-06 7.490854e-01 7.258342e-08 -7.088268e-08 6.196156e-01 4.710434e-08 -1.276032e-06 1.294698e-01
1.65           1.204027e-07 -1.315039e-06 7.486786e-01 7.323647e-08 -5.553157e-08 6.193023e-01 4.716626e-08 -1.259508e-06 1.293763e-01