# Force       
# CofR        : (0.000000e+00 0.000000e+00 0.000000e+00)
#
# Time        	total_x total_y total_z	pressure_x pressure_y pressure_z	viscous_x viscous_y viscous_z
0.0075        	8.764332e-06 -1.420089e-05 5.193328e+01	9.250880e-06 -1.470094e-05 5.102856e+01	-4.865477e-07 5.000542e-07 9.047148e-01
0.015         	-7.049951e-06 3.925294e-06 -2.440388e+00	-6.889664e-06 1.756275e-06 -3.019274e+00	-1.602873e-07 2.169018e-06 5.788863e-01
0.0225        	2.808830e-05 2.451655e-05 -5.644917e+00	2.783157e-05 2.204410e-05 -6.057422e+00	2.567288e-07 2.472450e-06 4.125047e-01
0.03          	-2.135197e-05 -3.069650e-05 5.326780e-02	-2.147901e-05 -3.483427e-05 -2.314471e-01	1.270445e-07 4.137771e-06 2.847149e-01
0.0375        	-7.322294e-06 -3.394031e-06 5.995054e-01	-7.289000e-06 -8.799863e-06 3.830089e-01	-3.329379e-08 5.405832e-06 2.164965e-01
0.045         	-2.998509e-06 7.618015e-06 6.015103e-01	-2.965867e-06 2.105788e-06 4.197198e-01	-3.264156e-08 5.512226e-06 1.817904e-01
0.0525        	-1.279841e-06 1.012972e-05 6.565871e-01	-1.287713e-06 4.861569e-06 4.967504e-01	7.872405e-09 5.268150e-06 1.598367e-01
0.06          	-1.805916e-06 8.112316e-06 6.872876e-01	-1.848684e-06 3.130070e-06 5.425434e-01	4.276836e-08 4.982246e-06 1.447442e-01
0.0675        	-1.160689e-06 8.001950e-06 7.017993e-01	-1.228963e-06 3.249159e-06 5.679657e-01	6.827389e-08 4.752791e-06 1.338336e-01
0.075         	-8.523524e-07 7.939339e-06 7.098736e-01	-9.399511e-07 3.365352e-06 5.842761e-01	8.759866e-08 4.573987e-06 1.255975e-01
0.0825        	-6.310710e-07 7.386485e-06 7.134869e-01	-7.320461e-07 2.989514e-06 5.943946e-01	1.009751e-07 4.396971e-06 1.190922e-01
0.09          	-4.292178e-07 6.992735e-06 7.143197e-01	-5.381956e-07 2.746319e-06 6.005654e-01	1.089778e-07 4.246416e-06 1.137543e-01
0.0975        	-3.296242e-07 6.681746e-06 7.136010e-01	-4.421973e-07 2.568359e-06 6.043535e-01	1.125730e-07 4.113387e-06 1.092475e-01
0.105         	-2.953287e-07 6.306439e-06 7.131069e-01	-4.089967e-07 2.341927e-06 6.077546e-01	1.136680e-07 3.964512e-06 1.053524e-01
0.1125        	-1.977132e-07 6.164789e-06 7.119527e-01	-3.105807e-07 2.342847e-06 6.100292e-01	1.128676e-07 3.821942e-06 1.019235e-01
0.12          	-2.099371e-07 5.689596e-06 7.102023e-01	-3.207726e-07 2.015550e-06 6.113329e-01	1.108355e-07 3.674047e-06 9.886947e-02
0.1275        	-1.593294e-07 5.885599e-06 7.081500e-01	-2.660819e-07 2.345999e-06 6.120378e-01	1.067524e-07 3.539600e-06 9.611224e-02
0.135         	-1.594187e-07 5.589909e-06 7.064595e-01	-2.616075e-07 2.179505e-06 6.128617e-01	1.021888e-07 3.410404e-06 9.359781e-02
0.1425        	-1.382108e-07 5.629972e-06 7.041071e-01	-2.350030e-07 2.335091e-06 6.128243e-01	9.679218e-08 3.294880e-06 9.128280e-02
0.15          	-2.018602e-07 4.680361e-06 7.021602e-01	-2.936964e-07 1.537119e-06 6.130201e-01	9.183623e-08 3.143242e-06 8.914003e-02
0.1575        	-1.678710e-07 4.653322e-06 7.025374e-01	-2.557685e-07 1.655903e-06 6.153923e-01	8.789752e-08 2.997419e-06 8.714508e-02
0.165         	-1.481613e-07 4.584832e-06 7.013458e-01	-2.321157e-07 1.704830e-06 6.160600e-01	8.395442e-08 2.880002e-06 8.528571e-02
0.1725        	-1.405985e-07 4.358013e-06 6.998835e-01	-2.205277e-07 1.586488e-06 6.163339e-01	7.992915e-08 2.771524e-06 8.354963e-02
0.18          	-1.315492e-07 4.272291e-06 6.987173e-01	-2.076483e-07 1.599359e-06 6.167966e-01	7.609913e-08 2.672932e-06 8.192072e-02
0.1875        	-1.419546e-07 4.096829e-06 6.975012e-01	-2.140335e-07 1.515352e-06 6.171183e-01	7.207891e-08 2.581477e-06 8.038290e-02
0.195         	-1.270482e-07 3.889618e-06 6.966013e-01	-1.955134e-07 1.394079e-06 6.176720e-01	6.846516e-08 2.495539e-06 7.892931e-02
0.2025        	-1.129522e-07 3.828612e-06 6.955846e-01	-1.782068e-07 1.412322e-06 6.180291e-01	6.525463e-08 2.416290e-06 7.755551e-02
0.21          	-1.281100e-07 3.609633e-06 6.947927e-01	-1.901660e-07 1.269753e-06 6.185389e-01	6.205604e-08 2.339880e-06 7.625380e-02
0.2175        	-1.546534e-07 3.325346e-06 6.942785e-01	-2.136866e-07 1.063824e-06 6.192552e-01	5.903326e-08 2.261522e-06 7.502330e-02
0.225         	-1.231466e-07 3.528982e-06 6.938036e-01	-1.789509e-07 1.333326e-06 6.199525e-01	5.580432e-08 2.195656e-06 7.385110e-02
0.2325        	-1.068411e-07 3.362453e-06 6.931833e-01	-1.593804e-07 1.225653e-06 6.204715e-01	5.253931e-08 2.136800e-06 7.271178e-02
0.24          	-1.354036e-07 3.232006e-06 6.927386e-01	-1.853890e-07 1.152800e-06 6.211217e-01	4.998532e-08 2.079206e-06 7.161690e-02
0.2475        	-1.097779e-07 3.099782e-06 6.924396e-01	-1.573542e-07 1.075806e-06 6.218647e-01	4.757634e-08 2.023977e-06 7.057491e-02
0.255         	-1.064548e-07 3.023374e-06 6.918122e-01	-1.517658e-07 1.053314e-06 6.222331e-01	4.531095e-08 1.970060e-06 6.957909e-02
0.2625        	-1.272635e-07 3.092064e-06 6.912891e-01	-1.705135e-07 1.167353e-06 6.226627e-01	4.324997e-08 1.924712e-06 6.862636e-02
0.27          	-1.117232e-07 3.032871e-06 6.909361e-01	-1.525691e-07 1.147527e-06 6.232293e-01	4.084595e-08 1.885343e-06 6.770687e-02
0.2775        	-1.351600e-07 2.762770e-06 6.903732e-01	-1.739516e-07 9.252623e-07 6.235547e-01	3.879163e-08 1.837508e-06 6.681848e-02
0.285         	-9.146904e-08 2.818403e-06 6.904757e-01	-1.284058e-07 1.024745e-06 6.245081e-01	3.693679e-08 1.793658e-06 6.596751e-02
0.2925        	-9.867900e-08 2.724174e-06 6.901773e-01	-1.338895e-07 9.735307e-07 6.250252e-01	3.521050e-08 1.750644e-06 6.515206e-02
0.3           	-1.226363e-07 2.742289e-06 6.896991e-01	-1.558113e-07 1.021503e-06 6.253334e-01	3.317494e-08 1.720786e-06 6.436567e-02
0.3075        	-9.863713e-08 2.690934e-06 6.893379e-01	-1.301316e-07 9.986577e-07 6.257311e-01	3.149443e-08 1.692277e-06 6.360676e-02
0.315         	-1.154324e-07 2.641749e-06 6.890327e-01	-1.452958e-07 9.768226e-07 6.261569e-01	2.986341e-08 1.664927e-06 6.287583e-02
0.3225        	-1.046402e-07 2.652700e-06 6.886347e-01	-1.328730e-07 1.015704e-06 6.264634e-01	2.823285e-08 1.636996e-06 6.217126e-02
0.33          	-7.402017e-08 2.656349e-06 6.881770e-01	-1.006855e-07 1.047045e-06 6.266897e-01	2.666536e-08 1.609304e-06 6.148726e-02
0.3375        	-9.640088e-08 2.547066e-06 6.879000e-01	-1.218225e-07 9.686525e-07 6.270754e-01	2.542161e-08 1.578413e-06 6.082460e-02
0.345         	-1.002100e-07 2.522638e-06 6.877723e-01	-1.243755e-07 9.736417e-07 6.275865e-01	2.416546e-08 1.548997e-06 6.018583e-02
0.3525        	-8.180039e-08 2.563937e-06 6.874223e-01	-1.046762e-07 1.038589e-06 6.278544e-01	2.287577e-08 1.525348e-06 5.956784e-02
0.36          	-1.004783e-07 2.460109e-06 6.871365e-01	-1.221253e-07 9.607953e-07 6.281649e-01	2.164695e-08 1.499314e-06 5.897163e-02
0.3675        	-7.063140e-08 2.945323e-06 6.867074e-01	-9.089831e-08 1.471532e-06 6.283108e-01	2.026691e-08 1.473791e-06 5.839661e-02
0.375         	-7.458506e-08 2.604306e-06 6.864324e-01	-9.355460e-08 1.145477e-06 6.285922e-01	1.896954e-08 1.458830e-06 5.784027e-02
0.3825        	-8.447442e-08 2.456021e-06 6.858235e-01	-1.020478e-07 1.014664e-06 6.285262e-01	1.757340e-08 1.441357e-06 5.729721e-02
0.39          	-7.027673e-08 2.877069e-06 6.852814e-01	-8.642263e-08 1.459225e-06 6.285130e-01	1.614590e-08 1.417844e-06 5.676843e-02
0.3975        	-8.236769e-08 2.424288e-06 6.847965e-01	-9.749199e-08 1.028692e-06 6.285399e-01	1.512431e-08 1.395595e-06 5.625658e-02
0.405         	-7.767946e-08 2.418475e-06 6.847676e-01	-9.194705e-08 1.041793e-06 6.290059e-01	1.426759e-08 1.376681e-06 5.576168e-02
0.4125        	-7.178570e-08 2.917751e-06 6.841019e-01	-8.468845e-08 1.555716e-06 6.288240e-01	1.290275e-08 1.362036e-06 5.527794e-02
0.42          	-7.789443e-08 2.879930e-06 6.836845e-01	-8.933405e-08 1.532388e-06 6.288774e-01	1.143962e-08 1.347543e-06 5.480704e-02
0.4275        	-7.934427e-08 2.792339e-06 6.832522e-01	-8.949929e-08 1.465496e-06 6.289001e-01	1.015502e-08 1.326843e-06 5.435205e-02
0.435         	-7.702832e-08 2.863945e-06 6.829277e-01	-8.595465e-08 1.554176e-06 6.290148e-01	8.926324e-09 1.309769e-06 5.391283e-02
0.4425        	-7.834307e-08 2.801364e-06 6.822947e-01	-8.602321e-08 1.508938e-06 6.288093e-01	7.680149e-09 1.292425e-06 5.348534e-02
0.45          	-7.665454e-08 2.798500e-06 6.818481e-01	-8.329422e-08 1.522794e-06 6.287782e-01	6.639686e-09 1.275706e-06 5.306995e-02
0.4575        	-8.053318e-08 2.818526e-06 6.814297e-01	-8.605639e-08 1.556333e-06 6.287628e-01	5.523209e-09 1.262193e-06 5.266688e-02
0.465         	-8.334748e-08 2.764154e-06 6.805820e-01	-8.786395e-08 1.516020e-06 6.283090e-01	4.516470e-09 1.248134e-06 5.227297e-02
0.4725        	-7.908029e-08 2.734823e-06 6.800443e-01	-8.263264e-08 1.502717e-06 6.281564e-01	3.552344e-09 1.232106e-06 5.188787e-02
0.48          	-7.958059e-08 2.820263e-06 6.797224e-01	-8.233565e-08 1.599103e-06 6.282072e-01	2.755052e-09 1.221160e-06 5.151518e-02
0.4875        	-7.431484e-08 2.836583e-06 6.790382e-01	-7.599969e-08 1.621201e-06 6.278857e-01	1.684852e-09 1.215382e-06 5.115258e-02
0.495         	-8.189719e-08 2.675445e-06 6.784650e-01	-8.267317e-08 1.475270e-06 6.276669e-01	7.759787e-10 1.200175e-06 5.079805e-02
0.5025        	-7.810835e-08 2.768481e-06 6.778469e-01	-7.809290e-08 1.580182e-06 6.273939e-01	-1.544988e-11 1.188300e-06 5.045305e-02
0.51          	-8.057217e-08 2.765358e-06 6.772094e-01	-7.988206e-08 1.589829e-06 6.270923e-01	-6.901103e-10 1.175529e-06 5.011710e-02
0.5175        	-8.058245e-08 2.790817e-06 6.765932e-01	-7.902218e-08 1.626041e-06 6.268040e-01	-1.560266e-09 1.164776e-06 4.978928e-02
0.525         	-8.359311e-08 2.705203e-06 6.759728e-01	-8.142119e-08 1.553653e-06 6.265034e-01	-2.171922e-09 1.151550e-06 4.946943e-02
0.5325        	-8.380145e-08 2.768568e-06 6.752900e-01	-8.112926e-08 1.630892e-06 6.261326e-01	-2.672194e-09 1.137676e-06 4.915741e-02
0.54          	-7.901782e-08 2.742830e-06 6.744800e-01	-7.565076e-08 1.614101e-06 6.256278e-01	-3.367062e-09 1.128728e-06 4.885218e-02
0.5475        	-7.966727e-08 2.725312e-06 6.737520e-01	-7.543697e-08 1.605484e-06 6.251980e-01	-4.230299e-09 1.119828e-06 4.855400e-02
0.555         	-8.277171e-08 2.752760e-06 6.731817e-01	-7.785759e-08 1.641356e-06 6.249179e-01	-4.914117e-09 1.111404e-06 4.826376e-02
0.5625        	-8.008970e-08 2.783861e-06 6.722873e-01	-7.459419e-08 1.677927e-06 6.243073e-01	-5.495510e-09 1.105935e-06 4.798000e-02
0.57          	-7.958021e-08 2.713384e-06 6.716153e-01	-7.342805e-08 1.615850e-06 6.239132e-01	-6.152154e-09 1.097534e-06 4.770201e-02
0.5775        	-8.217850e-08 2.718607e-06 6.709040e-01	-7.541192e-08 1.631307e-06 6.234731e-01	-6.766580e-09 1.087299e-06 4.743093e-02
0.585         	-8.087932e-08 2.775398e-06 6.702297e-01	-7.349289e-08 1.693848e-06 6.230632e-01	-7.386424e-09 1.081550e-06 4.716649e-02
0.5925        	-8.312398e-08 2.769604e-06 6.694943e-01	-7.512144e-08 1.692926e-06 6.225861e-01	-8.002534e-09 1.076678e-06 4.690822e-02
0.6           	-8.302854e-08 2.735397e-06 6.687392e-01	-7.440781e-08 1.666137e-06 6.220829e-01	-8.620733e-09 1.069260e-06 4.665626e-02
0.6075        	-8.411476e-08 2.788851e-06 6.679095e-01	-7.492687e-08 1.724163e-06 6.215003e-01	-9.187893e-09 1.064688e-06 4.640918e-02
0.615         	-8.185227e-08 2.734117e-06 6.671157e-01	-7.205675e-08 1.676441e-06 6.209486e-01	-9.795524e-09 1.057676e-06 4.616714e-02
0.6225        	-8.272509e-08 2.800857e-06 6.663174e-01	-7.232355e-08 1.747175e-06 6.203872e-01	-1.040154e-08 1.053682e-06 4.593023e-02
0.63          	-8.434127e-08 2.727062e-06 6.653541e-01	-7.335345e-08 1.679468e-06 6.196569e-01	-1.098782e-08 1.047594e-06 4.569726e-02
0.6375        	-8.062098e-08 2.774675e-06 6.645005e-01	-6.902643e-08 1.733853e-06 6.190319e-01	-1.159455e-08 1.040822e-06 4.546857e-02
0.645         	-8.147463e-08 2.772708e-06 6.636682e-01	-6.934143e-08 1.737580e-06 6.184230e-01	-1.213320e-08 1.035128e-06 4.524523e-02
0.6525        	-8.177105e-08 2.776649e-06 6.629816e-01	-6.912898e-08 1.746144e-06 6.179543e-01	-1.264207e-08 1.030505e-06 4.502732e-02
0.66          	-8.824959e-08 2.783034e-06 6.620938e-01	-7.507476e-08 1.756526e-06 6.172796e-01	-1.317482e-08 1.026508e-06 4.481427e-02
0.6675        	-8.062305e-08 2.797111e-06 6.613184e-01	-6.694096e-08 1.773492e-06 6.167127e-01	-1.368208e-08 1.023619e-06 4.460565e-02
0.675         	-8.447898e-08 2.798809e-06 6.604686e-01	-7.025675e-08 1.778416e-06 6.160673e-01	-1.422223e-08 1.020393e-06 4.440132e-02
0.6825        	-8.215863e-08 2.817079e-06 6.595699e-01	-6.738237e-08 1.799439e-06 6.153691e-01	-1.477626e-08 1.017640e-06 4.420075e-02
0.69          	-8.271924e-08 2.824280e-06 6.588006e-01	-6.734779e-08 1.809452e-06 6.147961e-01	-1.537144e-08 1.014828e-06 4.400453e-02
0.6975        	-9.108678e-08 2.822795e-06 6.578192e-01	-7.521505e-08 1.809834e-06 6.140078e-01	-1.587174e-08 1.012961e-06 4.381139e-02
0.705         	-8.286125e-08 2.842552e-06 6.568880e-01	-6.642437e-08 1.830824e-06 6.132668e-01	-1.643688e-08 1.011728e-06 4.362120e-02
0.7125        	-8.948471e-08 2.774620e-06 6.559982e-01	-7.254648e-08 1.769080e-06 6.125638e-01	-1.693823e-08 1.005540e-06 4.343441e-02
0.72          	-8.095913e-08 2.788694e-06 6.550653e-01	-6.354121e-08 1.790039e-06 6.118142e-01	-1.741792e-08 9.986558e-07 4.325111e-02
0.7275        	-8.783084e-08 2.867180e-06 6.542002e-01	-6.987435e-08 1.869056e-06 6.111287e-01	-1.795650e-08 9.981240e-07 4.307146e-02
0.735         	-4.684478e-08 2.806611e-06 6.519903e-01	-2.866179e-08 1.807277e-06 6.090849e-01	-1.818299e-08 9.993343e-07 4.290546e-02
0.7425        	-5.536961e-08 2.795769e-06 6.511753e-01	-3.691259e-08 1.795906e-06 6.084295e-01	-1.845703e-08 9.998625e-07 4.274579e-02
0.75          	-5.505388e-08 2.824966e-06 6.502808e-01	-3.609341e-08 1.823045e-06 6.076938e-01	-1.896047e-08 1.001921e-06 4.258703e-02
0.7575        	-5.596605e-08 2.811112e-06 6.494561e-01	-3.654917e-08 1.807932e-06 6.070263e-01	-1.941687e-08 1.003180e-06 4.242985e-02
0.765         	-5.612140e-08 2.809118e-06 6.485792e-01	-3.617711e-08 1.805849e-06 6.063040e-01	-1.994429e-08 1.003269e-06 4.227520e-02
0.7725        	-5.727101e-08 2.920968e-06 6.476743e-01	-3.671351e-08 1.911536e-06 6.055510e-01	-2.055750e-08 1.009432e-06 4.212324e-02
0.78          	-5.473022e-08 2.794431e-06 6.468292e-01	-3.356836e-08 1.785511e-06 6.048560e-01	-2.116186e-08 1.008919e-06 4.197321e-02
0.7875        	-5.653069e-08 2.859322e-06 6.460012e-01	-3.476228e-08 1.850726e-06 6.041756e-01	-2.176841e-08 1.008596e-06 4.182556e-02
0.795         	-6.074594e-08 2.921484e-06 6.449891e-01	-3.827878e-08 1.907321e-06 6.033098e-01	-2.246716e-08 1.014163e-06 4.167930e-02
0.8025        	-5.683987e-08 2.865252e-06 6.440863e-01	-3.370697e-08 1.849501e-06 6.025516e-01	-2.313290e-08 1.015751e-06 4.153464e-02
0.81          	-5.970677e-08 2.912534e-06 6.431930e-01	-3.593867e-08 1.894929e-06 6.018006e-01	-2.376810e-08 1.017604e-06 4.139237e-02
0.8175        	-6.095502e-08 2.894413e-06 6.422856e-01	-3.648731e-08 1.875485e-06 6.010330e-01	-2.446771e-08 1.018927e-06 4.125266e-02
0.825         	-5.951586e-08 2.898005e-06 6.413797e-01	-3.444455e-08 1.878907e-06 6.002645e-01	-2.507131e-08 1.019097e-06 4.111518e-02
0.8325        	-6.148093e-08 2.879904e-06 6.404657e-01	-3.576829e-08 1.861977e-06 5.994859e-01	-2.571264e-08 1.017927e-06 4.097979e-02
0.84          	-5.911470e-08 2.944562e-06 6.395721e-01	-3.287644e-08 1.924527e-06 5.987255e-01	-2.623825e-08 1.020035e-06 4.084660e-02
0.8475        	-6.580912e-08 2.938502e-06 6.386944e-01	-3.876799e-08 1.915706e-06 5.979789e-01	-2.704113e-08 1.022796e-06 4.071552e-02
0.855         	-6.010104e-08 2.966562e-06 6.377609e-01	-3.248632e-08 1.940610e-06 5.971745e-01	-2.761471e-08 1.025953e-06 4.058641e-02
0.8625        	-6.658549e-08 2.956917e-06 6.368799e-01	-3.820642e-08 1.928892e-06 5.964206e-01	-2.837906e-08 1.028025e-06 4.045935e-02
0.87          	-6.054548e-08 2.938197e-06 6.360121e-01	-3.165795e-08 1.910143e-06 5.956777e-01	-2.888752e-08 1.028054e-06 4.033439e-02
0.8775        	-6.827179e-08 3.003084e-06 6.351448e-01	-3.861622e-08 1.971899e-06 5.949331e-01	-2.965557e-08 1.031185e-06 4.021177e-02
0.885         	-6.163947e-08 2.963139e-06 6.342742e-01	-3.143928e-08 1.930559e-06 5.941832e-01	-3.020020e-08 1.032580e-06 4.009094e-02
0.8925        	-7.022718e-08 3.036345e-06 6.332743e-01	-3.922976e-08 1.998884e-06 5.933026e-01	-3.099743e-08 1.037461e-06 3.997167e-02
0.9           	-6.442151e-08 3.022996e-06 6.322943e-01	-3.290222e-08 1.981171e-06 5.924397e-01	-3.151930e-08 1.041825e-06 3.985461e-02
0.9075        	-7.038772e-08 3.004483e-06 6.314172e-01	-3.809840e-08 1.961489e-06 5.916779e-01	-3.228932e-08 1.042994e-06 3.973928e-02
0.915         	-6.371466e-08 3.040614e-06 6.305293e-01	-3.096998e-08 1.995340e-06 5.909037e-01	-3.274468e-08 1.045275e-06 3.962558e-02
0.9225        	-7.398679e-08 3.021886e-06 6.295915e-01	-4.045673e-08 1.975371e-06 5.900780e-01	-3.353006e-08 1.046515e-06 3.951345e-02
0.93          	-6.627173e-08 3.069877e-06 6.286976e-01	-3.222858e-08 2.020318e-06 5.892947e-01	-3.404314e-08 1.049559e-06 3.940289e-02
0.9375        	-7.569835e-08 3.062534e-06 6.278053e-01	-4.084410e-08 2.009893e-06 5.885113e-01	-3.485425e-08 1.052642e-06 3.929404e-02
0.945         	-6.795126e-08 3.096633e-06 6.269163e-01	-3.256469e-08 2.040002e-06 5.877295e-01	-3.538657e-08 1.056631e-06 3.918682e-02
0.9525        	-7.587319e-08 3.080773e-06 6.259933e-01	-3.975018e-08 2.021315e-06 5.869120e-01	-3.612301e-08 1.059458e-06 3.908127e-02
0.96          	-6.937638e-08 3.089415e-06 6.250962e-01	-3.275098e-08 2.028131e-06 5.861191e-01	-3.662540e-08 1.061284e-06 3.897713e-02
0.9675        	-7.767682e-08 3.094075e-06 6.242201e-01	-4.032922e-08 2.031076e-06 5.853457e-01	-3.734761e-08 1.062999e-06 3.887446e-02
0.975         	-7.040747e-08 3.124289e-06 6.233286e-01	-3.260546e-08 2.058153e-06 5.845553e-01	-3.780201e-08 1.066136e-06 3.877329e-02
0.9825        	-7.820417e-08 3.117958e-06 6.224841e-01	-3.980441e-08 2.051350e-06 5.838104e-01	-3.839975e-08 1.066608e-06 3.867373e-02
0.99          	-7.209132e-08 3.111303e-06 6.215815e-01	-3.333429e-08 2.045637e-06 5.830060e-01	-3.875703e-08 1.065667e-06 3.857548e-02
0.9975        	-7.882275e-08 3.173532e-06 6.206486e-01	-3.942312e-08 2.104150e-06 5.821704e-01	-3.939962e-08 1.069382e-06 3.847818e-02
1.005         	-7.366828e-08 3.150691e-06 6.197115e-01	-3.388134e-08 2.077372e-06 5.813298e-01	-3.978694e-08 1.073319e-06 3.838167e-02
1.0125        	-8.114139e-08 3.135990e-06 6.188176e-01	-4.076019e-08 2.060961e-06 5.805314e-01	-4.038120e-08 1.075029e-06 3.828618e-02
1.02          	-7.152025e-08 3.088624e-06 6.179014e-01	-3.088821e-08 2.014971e-06 5.797096e-01	-4.063204e-08 1.073653e-06 3.819188e-02
1.0275        	-8.293736e-08 3.171641e-06 6.170303e-01	-4.164090e-08 2.094816e-06 5.789315e-01	-4.129647e-08 1.076825e-06 3.809886e-02
1.035         	-7.225098e-08 3.147806e-06 6.161520e-01	-3.068965e-08 2.067376e-06 5.781449e-01	-4.156133e-08 1.080430e-06 3.800705e-02
1.0425        	-8.340918e-08 3.146218e-06 6.152726e-01	-4.126220e-08 2.063585e-06 5.773561e-01	-4.214698e-08 1.082633e-06 3.791645e-02
1.05          	-7.435391e-08 3.187764e-06 6.143915e-01	-3.190044e-08 2.100473e-06 5.765645e-01	-4.245346e-08 1.087291e-06 3.782703e-02
1.0575        	-8.254327e-08 3.165951e-06 6.135372e-01	-3.955848e-08 2.074874e-06 5.757985e-01	-4.298479e-08 1.091077e-06 3.773875e-02
1.065         	-7.516586e-08 3.174351e-06 6.126498e-01	-3.188482e-08 2.080090e-06 5.749983e-01	-4.328103e-08 1.094261e-06 3.765146e-02
1.0725        	-8.339009e-08 3.203139e-06 6.117643e-01	-3.956090e-08 2.104297e-06 5.741991e-01	-4.382919e-08 1.098842e-06 3.756520e-02
1.08          	-7.610968e-08 3.157180e-06 6.109092e-01	-3.198307e-08 2.056392e-06 5.734291e-01	-4.412661e-08 1.100788e-06 3.748009e-02
1.0875        	-8.517337e-08 3.224998e-06 6.100457e-01	-4.045779e-08 2.119700e-06 5.726495e-01	-4.471558e-08 1.105298e-06 3.739612e-02
1.095         	-7.639912e-08 3.191542e-06 6.092166e-01	-3.141777e-08 2.082529e-06 5.719032e-01	-4.498136e-08 1.109012e-06 3.731346e-02
1.1025        	-8.497327e-08 3.225170e-06 6.083457e-01	-3.948033e-08 2.112025e-06 5.711139e-01	-4.549294e-08 1.113144e-06 3.723179e-02
1.11          	-7.868537e-08 3.241622e-06 6.074899e-01	-3.284865e-08 2.122827e-06 5.703388e-01	-4.583672e-08 1.118795e-06 3.715102e-02
1.1175        	-8.383956e-08 3.222360e-06 6.066639e-01	-3.753606e-08 2.099853e-06 5.695925e-01	-4.630350e-08 1.122507e-06 3.707136e-02
1.125         	-7.898767e-08 3.241582e-06 6.057256e-01	-3.242318e-08 2.114824e-06 5.687335e-01	-4.656450e-08 1.126759e-06 3.699207e-02
1.1325        	-8.622837e-08 3.268529e-06 6.048490e-01	-3.915556e-08 2.136116e-06 5.679357e-01	-4.707282e-08 1.132413e-06 3.691337e-02
1.14          	-7.996609e-08 3.255934e-06 6.039709e-01	-3.256826e-08 2.118970e-06 5.671354e-01	-4.739783e-08 1.136964e-06 3.683556e-02
1.1475        	-8.675885e-08 3.286131e-06 6.031439e-01	-3.886406e-08 2.144155e-06 5.663850e-01	-4.789479e-08 1.141976e-06 3.675884e-02
1.155         	-8.049225e-08 3.267057e-06 6.023021e-01	-3.234614e-08 2.121100e-06 5.656190e-01	-4.814611e-08 1.145957e-06 3.668312e-02
1.1625        	-8.645554e-08 3.284019e-06 6.014745e-01	-3.789249e-08 2.134291e-06 5.648661e-01	-4.856305e-08 1.149728e-06 3.660839e-02
1.17          	-8.183775e-08 3.335648e-06 6.006227e-01	-3.299468e-08 2.178994e-06 5.640882e-01	-4.884306e-08 1.156654e-06 3.653450e-02
1.1775        	-8.802834e-08 3.305134e-06 5.997968e-01	-3.871084e-08 2.143022e-06 5.633354e-01	-4.931750e-08 1.162113e-06 3.646141e-02
1.185         	-8.224760e-08 3.310843e-06 5.989713e-01	-3.265187e-08 2.144647e-06 5.625822e-01	-4.959572e-08 1.166195e-06 3.638920e-02
1.1925        	-8.767968e-08 3.322699e-06 5.981249e-01	-3.768310e-08 2.152039e-06 5.618071e-01	-4.999657e-08 1.170660e-06 3.631776e-02
1.2           	-8.376712e-08 3.336788e-06 5.972950e-01	-3.349242e-08 2.162947e-06 5.610480e-01	-5.027471e-08 1.173842e-06 3.624707e-02
1.2075        	-8.910865e-08 3.390626e-06 5.964858e-01	-3.838307e-08 2.209902e-06 5.603086e-01	-5.072558e-08 1.180724e-06 3.617716e-02
1.215         	-8.361088e-08 3.325961e-06 5.956961e-01	-3.264610e-08 2.141169e-06 5.595880e-01	-5.096478e-08 1.184792e-06 3.610812e-02
1.2225        	-8.821013e-08 3.358920e-06 5.948663e-01	-3.691247e-08 2.170631e-06 5.588265e-01	-5.129766e-08 1.188289e-06 3.603980e-02
1.23          	-8.447420e-08 3.401575e-06 5.940682e-01	-3.295336e-08 2.210093e-06 5.580959e-01	-5.152084e-08 1.191482e-06 3.597225e-02
1.2375        	-8.916008e-08 3.366980e-06 5.932721e-01	-3.727196e-08 2.172264e-06 5.573666e-01	-5.188812e-08 1.194717e-06 3.590551e-02
1.245         	-8.650165e-08 3.404850e-06 5.924995e-01	-3.429636e-08 2.205152e-06 5.566599e-01	-5.220530e-08 1.199698e-06 3.583962e-02
1.2525        	-8.808550e-08 3.355906e-06 5.916828e-01	-3.554249e-08 2.153688e-06 5.559084e-01	-5.254300e-08 1.202218e-06 3.577433e-02
1.26          	-8.774336e-08 3.483375e-06 5.908769e-01	-3.489384e-08 2.274719e-06 5.551673e-01	-5.284952e-08 1.208657e-06 3.570958e-02
1.2675        	-8.974968e-08 3.475408e-06 5.900223e-01	-3.651506e-08 2.259733e-06 5.543773e-01	-5.323462e-08 1.215675e-06 3.564501e-02
1.275         	-8.626015e-08 3.392694e-06 5.892000e-01	-3.282233e-08 2.175459e-06 5.536191e-01	-5.343781e-08 1.217235e-06 3.558081e-02
1.2825        	-8.957087e-08 3.461834e-06 5.884260e-01	-3.586662e-08 2.240832e-06 5.529086e-01	-5.370425e-08 1.221003e-06 3.551744e-02
1.29          	-8.844519e-08 3.437758e-06 5.876449e-01	-3.446791e-08 2.212824e-06 5.521900e-01	-5.397728e-08 1.224934e-06 3.545490e-02
1.2975        	-9.321473e-08 3.505052e-06 5.868713e-01	-3.924966e-08 2.276103e-06 5.514782e-01	-5.396508e-08 1.228949e-06 3.539307e-02
1.305         	-9.468515e-08 3.486685e-06 5.860914e-01	-4.072288e-08 2.254696e-06 5.507595e-01	-5.396228e-08 1.231988e-06 3.533186e-02
1.3125        	-9.147169e-08 3.478836e-06 5.853261e-01	-3.761499e-08 2.245145e-06 5.500548e-01	-5.385670e-08 1.233691e-06 3.527131e-02
1.32          	-9.464303e-08 3.512009e-06 5.845389e-01	-4.074393e-08 2.274713e-06 5.493276e-01	-5.389910e-08 1.237296e-06 3.521130e-02
1.3275        	-9.138504e-08 3.519870e-06 5.837727e-01	-3.751844e-08 2.278055e-06 5.486209e-01	-5.386660e-08 1.241815e-06 3.515183e-02
1.335         	-9.420963e-08 3.507309e-06 5.830125e-01	-4.027333e-08 2.262224e-06 5.479195e-01	-5.393630e-08 1.245084e-06 3.509297e-02
1.3425        	-9.121703e-08 3.532956e-06 5.822453e-01	-3.728948e-08 2.283872e-06 5.472106e-01	-5.392756e-08 1.249084e-06 3.503466e-02
1.35          	-9.391612e-08 3.558339e-06 5.814870e-01	-3.988670e-08 2.306094e-06 5.465101e-01	-5.402942e-08 1.252245e-06 3.497689e-02
1.3575        	-9.047660e-08 3.545964e-06 5.807481e-01	-3.646588e-08 2.289508e-06 5.458284e-01	-5.401072e-08 1.256456e-06 3.491970e-02
1.365         	-9.342470e-08 3.541938e-06 5.800066e-01	-3.933445e-08 2.281532e-06 5.451435e-01	-5.409025e-08 1.260406e-06 3.486308e-02
1.3725        	-8.990479e-08 3.565735e-06 5.792509e-01	-3.584258e-08 2.300833e-06 5.444440e-01	-5.406222e-08 1.264902e-06 3.480697e-02
1.38          	-9.200481e-08 3.558290e-06 5.785187e-01	-3.787991e-08 2.291672e-06 5.437673e-01	-5.412490e-08 1.266618e-06 3.475141e-02
1.3875        	-9.015199e-08 3.587345e-06 5.777994e-01	-3.600834e-08 2.319348e-06 5.431030e-01	-5.414365e-08 1.267997e-06 3.469648e-02
1.395         	-9.150209e-08 3.579635e-06 5.770779e-01	-3.730984e-08 2.307037e-06 5.424358e-01	-5.419225e-08 1.272598e-06 3.464210e-02
1.4025        	-8.960909e-08 3.586525e-06 5.763687e-01	-3.541902e-08 2.309163e-06 5.417804e-01	-5.419008e-08 1.277362e-06 3.458832e-02
1.41          	-9.156072e-08 3.610498e-06 5.755996e-01	-3.728218e-08 2.327254e-06 5.410648e-01	-5.427854e-08 1.283245e-06 3.453478e-02
1.4175        	-9.006628e-08 3.596415e-06 5.748665e-01	-3.573109e-08 2.308381e-06 5.403849e-01	-5.433519e-08 1.288034e-06 3.448160e-02
1.425         	-9.044831e-08 3.598105e-06 5.740843e-01	-3.605721e-08 2.309757e-06 5.396558e-01	-5.439109e-08 1.288347e-06 3.442850e-02
1.4325        	-8.920405e-08 3.645998e-06 5.733835e-01	-3.478254e-08 2.352388e-06 5.390077e-01	-5.442151e-08 1.293611e-06 3.437587e-02
1.44          	-8.974095e-08 3.644976e-06 5.726782e-01	-3.530298e-08 2.347216e-06 5.383544e-01	-5.443798e-08 1.297760e-06 3.432386e-02
1.4475        	-8.904649e-08 3.615738e-06 5.719669e-01	-3.459811e-08 2.314761e-06 5.376945e-01	-5.444838e-08 1.300977e-06 3.427238e-02
1.455         	-8.872568e-08 3.615764e-06 5.712650e-01	-3.427824e-08 2.311508e-06 5.370436e-01	-5.444744e-08 1.304256e-06 3.422141e-02
1.4625        	-9.048355e-08 3.658149e-06 5.705584e-01	-3.592826e-08 2.348547e-06 5.363876e-01	-5.455529e-08 1.309603e-06 3.417089e-02
1.47          	-8.796513e-08 3.645307e-06 5.698613e-01	-3.340749e-08 2.330568e-06 5.357405e-01	-5.455764e-08 1.314739e-06 3.412081e-02
1.4775        	-8.856788e-08 3.668868e-06 5.691652e-01	-3.400998e-08 2.348618e-06 5.350941e-01	-5.455790e-08 1.320250e-06 3.407119e-02
1.485         	-8.673424e-08 3.652321e-06 5.684585e-01	-3.224167e-08 2.327612e-06 5.344366e-01	-5.449257e-08 1.324710e-06 3.402195e-02
1.4925        	-8.931297e-08 3.682452e-06 5.677782e-01	-3.474905e-08 2.352487e-06 5.338050e-01	-5.456392e-08 1.329964e-06 3.397316e-02
1.5           	-8.533039e-08 3.645524e-06 5.670907e-01	-3.084466e-08 2.312292e-06 5.331659e-01	-5.448573e-08 1.333233e-06 3.392481e-02
1.5075        	-8.983062e-08 3.705867e-06 5.664043e-01	-3.523988e-08 2.367172e-06 5.325275e-01	-5.459075e-08 1.338695e-06 3.387685e-02
1.515         	-8.566866e-08 3.680401e-06 5.657292e-01	-3.109144e-08 2.336849e-06 5.318998e-01	-5.457722e-08 1.343552e-06 3.382934e-02
1.5225        	-8.913069e-08 3.719938e-06 5.650476e-01	-3.446030e-08 2.370468e-06 5.312654e-01	-5.467039e-08 1.349470e-06 3.378221e-02
1.53          	-8.541707e-08 3.709220e-06 5.643772e-01	-3.077546e-08 2.354248e-06 5.306418e-01	-5.464161e-08 1.354972e-06 3.373549e-02
1.5375        	-8.833051e-08 3.701229e-06 5.637107e-01	-3.363590e-08 2.342342e-06 5.300214e-01	-5.469461e-08 1.358887e-06 3.368922e-02
1.545         	-8.474310e-08 3.699129e-06 5.630507e-01	-3.010753e-08 2.337003e-06 5.294073e-01	-5.463556e-08 1.362127e-06 3.364338e-02
1.5525        	-8.801176e-08 3.741800e-06 5.623802e-01	-3.331084e-08 2.374152e-06 5.287823e-01	-5.470092e-08 1.367648e-06 3.359789e-02
1.56          	-8.465034e-08 3.744140e-06 5.617292e-01	-2.998282e-08 2.370398e-06 5.281763e-01	-5.466752e-08 1.373742e-06 3.355282e-02
1.5675        	-8.827483e-08 3.744478e-06 5.610846e-01	-3.350872e-08 2.365613e-06 5.275764e-01	-5.476611e-08 1.378865e-06 3.350820e-02
1.575         	-8.280521e-08 3.745135e-06 5.604184e-01	-2.815038e-08 2.361726e-06 5.269545e-01	-5.465483e-08 1.383408e-06 3.346387e-02
1.5825        	-8.931719e-08 3.783891e-06 5.597706e-01	-3.451160e-08 2.394192e-06 5.263507e-01	-5.480559e-08 1.389699e-06 3.341986e-02
1.59          	-8.218191e-08 3.808365e-06 5.591229e-01	-2.746012e-08 2.410629e-06 5.257467e-01	-5.472179e-08 1.397736e-06 3.337621e-02
1.5975        	-8.755679e-08 3.748678e-06 5.584724e-01	-3.278539e-08 2.347453e-06 5.251396e-01	-5.477140e-08 1.401225e-06 3.333283e-02
1.605         	-8.279526e-08 3.806308e-06 5.577911e-01	-2.808498e-08 2.399882e-06 5.245016e-01	-5.471029e-08 1.406426e-06 3.328954e-02
1.6125        	-8.745287e-08 3.795287e-06 5.571520e-01	-3.264350e-08 2.383191e-06 5.239055e-01	-5.480936e-08 1.412096e-06 3.324655e-02
1.62          	-8.150620e-08 3.814058e-06 5.565294e-01	-2.681905e-08 2.396581e-06 5.233253e-01	-5.468715e-08 1.417477e-06 3.320404e-02
1.6275        	-8.829094e-08 3.825608e-06 5.558964e-01	-3.346372e-08 2.402327e-06 5.227345e-01	-5.482722e-08 1.423281e-06 3.316192e-02
1.635         	-8.037593e-08 3.806283e-06 5.552782e-01	-2.568418e-08 2.378756e-06 5.221580e-01	-5.469176e-08 1.427527e-06 3.312017e-02
1.6425        	-8.815184e-08 3.833527e-06 5.546574e-01	-3.333664e-08 2.401092e-06 5.215786e-01	-5.481520e-08 1.432435e-06 3.307878e-02
1.65          	-7.891907e-08 3.839079e-06 5.540330e-01	-2.429854e-08 2.401180e-06 5.209953e-01	-5.462053e-08 1.437899e-06 3.303770e-02
1.6575        	-8.790528e-08 3.835851e-06 5.534190e-01	-3.317275e-08 2.393295e-06 5.204220e-01	-5.473253e-08 1.442557e-06 3.299696e-02