# Moment      
# CofR        : (0.000000e+00 0.000000e+00 0.000000e+00)
#
# Time        	(total_x total_y total_z)	(pressure_x pressure_y pressure_z)	(viscous_x viscous_y viscous_z)
0.0075        	(1.546169e-06 -1.157629e-06 -1.596991e-09)	(1.521604e-06 -1.187535e-06 1.151965e-19)	(2.456517e-08 2.990626e-08 -1.596991e-09)
0.015         	(6.932165e-06 5.953383e-07 -3.325721e-09)	(6.637599e-06 5.442446e-07 2.091209e-15)	(2.945659e-07 5.109374e-08 -3.325723e-09)
0.0225        	(-1.917496e-05 1.132895e-05 -6.243938e-09)	(-1.913857e-05 1.131073e-05 -9.272910e-16)	(-3.638674e-08 1.821595e-08 -6.243937e-09)
0.03          	(-5.525101e-06 -2.496729e-06 -3.833362e-09)	(-5.652933e-06 -2.531228e-06 -9.306520e-17)	(1.278322e-07 3.449876e-08 -3.833362e-09)
0.0375        	(-1.634101e-07 -2.079174e-06 -1.170196e-09)	(-8.323306e-07 -2.121500e-06 -7.008012e-17)	(6.689206e-07 4.232585e-08 -1.170196e-09)
0.045         	(2.199414e-06 -5.028203e-07 1.473845e-10)	(1.294861e-06 -5.341087e-07 -5.167579e-17)	(9.045530e-07 3.128840e-08 1.473845e-10)
0.0525        	(3.785785e-06 4.427691e-09 1.281001e-09)	(2.929290e-06 -2.036631e-08 -3.426079e-17)	(8.564956e-07 2.479400e-08 1.281001e-09)
0.06          	(3.207883e-06 -2.356289e-07 1.817159e-09)	(2.502228e-06 -2.580589e-07 -4.424900e-17)	(7.056553e-07 2.242993e-08 1.817159e-09)
0.0675        	(3.500945e-06 -1.745994e-07 1.797744e-09)	(2.939003e-06 -1.958323e-07 -9.482703e-17)	(5.619419e-07 2.123291e-08 1.797744e-09)
0.075         	(3.488459e-06 -6.562272e-08 1.511066e-09)	(3.037645e-06 -8.584663e-08 -1.310258e-16)	(4.508146e-07 2.022391e-08 1.511066e-09)
0.0825        	(2.642067e-06 -5.946130e-08 1.112795e-09)	(2.277351e-06 -7.879314e-08 -1.491185e-16)	(3.647168e-07 1.933184e-08 1.112795e-09)
0.09          	(2.553953e-06 -2.928363e-08 6.940654e-10)	(2.250504e-06 -4.776307e-08 -1.654628e-16)	(3.034492e-07 1.847944e-08 6.940656e-10)
0.0975        	(2.696551e-06 -6.128818e-08 3.433034e-10)	(2.444347e-06 -7.903293e-08 -1.373007e-16)	(2.522033e-07 1.774475e-08 3.433035e-10)
0.105         	(2.154153e-06 -3.096945e-09 1.008720e-10)	(1.952486e-06 -2.044657e-08 -1.286541e-16)	(2.016671e-07 1.734963e-08 1.008721e-10)
0.1125        	(2.305617e-06 -7.775630e-08 -6.321617e-11)	(2.128875e-06 -9.450599e-08 -1.191674e-16)	(1.767420e-07 1.674969e-08 -6.321605e-11)
0.12          	(1.941078e-06 -3.026839e-08 -1.544879e-10)	(1.775666e-06 -4.647659e-08 -1.033651e-16)	(1.654122e-07 1.620820e-08 -1.544878e-10)
0.1275        	(1.748482e-06 -8.947719e-08 -2.065478e-10)	(1.597016e-06 -1.051022e-07 -9.588413e-17)	(1.514657e-07 1.562500e-08 -2.065477e-10)
0.135         	(1.796979e-06 -5.818298e-08 -2.333606e-10)	(1.660412e-06 -7.320915e-08 -8.253489e-17)	(1.365675e-07 1.502618e-08 -2.333605e-10)
0.1425        	(1.287272e-06 -1.110056e-07 -2.507612e-10)	(1.165809e-06 -1.254047e-07 -8.672262e-17)	(1.214636e-07 1.439908e-08 -2.507611e-10)
0.15          	(1.590875e-06 -6.848887e-08 -2.562008e-10)	(1.488134e-06 -8.240467e-08 -7.371220e-17)	(1.027408e-07 1.391580e-08 -2.562007e-10)
0.1575        	(1.369434e-06 -4.823753e-08 -2.535738e-10)	(1.281551e-06 -6.171764e-08 -7.583994e-17)	(8.788313e-08 1.348012e-08 -2.535737e-10)
0.165         	(1.206166e-06 -9.144724e-08 -2.678629e-10)	(1.128246e-06 -1.044144e-07 -6.948381e-17)	(7.792027e-08 1.296719e-08 -2.678628e-10)
0.1725        	(1.130923e-06 -6.467303e-08 -2.902446e-10)	(1.061715e-06 -7.711519e-08 -6.624475e-17)	(6.920854e-08 1.244215e-08 -2.902446e-10)
0.18          	(1.014165e-06 -7.854130e-08 -3.104959e-10)	(9.537779e-07 -9.047052e-08 -6.636673e-17)	(6.038719e-08 1.192922e-08 -3.104959e-10)
0.1875        	(9.525628e-07 -5.462311e-08 -3.283688e-10)	(9.005424e-07 -6.609469e-08 -6.345293e-17)	(5.202047e-08 1.147158e-08 -3.283688e-10)
0.195         	(8.963502e-07 -7.742438e-08 -3.362745e-10)	(8.509532e-07 -8.842764e-08 -6.163689e-17)	(4.539701e-08 1.100326e-08 -3.362745e-10)
0.2025        	(7.471170e-07 -7.566763e-08 -3.403129e-10)	(7.068858e-07 -8.616149e-08 -5.423721e-17)	(4.023127e-08 1.049386e-08 -3.403128e-10)
0.21          	(7.935168e-07 -9.601802e-08 -3.493977e-10)	(7.598476e-07 -1.060659e-07 -5.374932e-17)	(3.366928e-08 1.004784e-08 -3.493977e-10)
0.2175        	(8.623739e-07 -8.721517e-08 -3.510461e-10)	(8.390535e-07 -9.682977e-08 -4.587530e-17)	(2.332041e-08 9.614606e-09 -3.510461e-10)
0.225         	(6.570884e-07 -9.187717e-08 -3.491857e-10)	(6.346428e-07 -1.011778e-07 -2.996464e-17)	(2.244567e-08 9.300626e-09 -3.491857e-10)
0.2325        	(6.406088e-07 -1.167486e-07 -3.480717e-10)	(6.183819e-07 -1.257203e-07 -4.592951e-17)	(2.222685e-08 8.971667e-09 -3.480717e-10)
0.24          	(6.601138e-07 -9.046059e-08 -3.430391e-10)	(6.409784e-07 -9.907732e-08 -4.935830e-17)	(1.913548e-08 8.616727e-09 -3.430390e-10)
0.2475        	(5.614275e-07 -1.089485e-07 -3.412116e-10)	(5.454684e-07 -1.172224e-07 -4.282599e-17)	(1.595916e-08 8.273919e-09 -3.412116e-10)
0.255         	(4.989764e-07 -1.026551e-07 -3.372549e-10)	(4.860835e-07 -1.105953e-07 -3.798773e-17)	(1.289291e-08 7.940171e-09 -3.372549e-10)
0.2625        	(4.983044e-07 -7.742793e-08 -3.270111e-10)	(4.872701e-07 -8.511077e-08 -3.672735e-17)	(1.103428e-08 7.682836e-09 -3.270110e-10)
0.27          	(5.775493e-07 -1.272884e-07 -3.185371e-10)	(5.675644e-07 -1.347299e-07 -3.899062e-17)	(9.984883e-09 7.441494e-09 -3.185371e-10)
0.2775        	(3.551297e-07 -1.088252e-07 -3.092950e-10)	(3.481164e-07 -1.160330e-07 -3.256672e-17)	(7.013313e-09 7.207787e-09 -3.092950e-10)
0.285         	(5.099286e-07 -1.035722e-07 -3.000797e-10)	(5.052986e-07 -1.104796e-07 -3.015437e-17)	(4.629939e-09 6.907398e-09 -3.000797e-10)
0.2925        	(3.013875e-07 -1.191752e-07 -2.887331e-10)	(2.986787e-07 -1.257739e-07 -2.793176e-17)	(2.708759e-09 6.598664e-09 -2.887331e-10)
0.3           	(4.823896e-07 -1.062497e-07 -2.793725e-10)	(4.808680e-07 -1.126272e-07 -2.637322e-17)	(1.521656e-09 6.377447e-09 -2.793725e-10)
0.3075        	(3.835762e-07 -1.225037e-07 -2.675339e-10)	(3.828501e-07 -1.286341e-07 -2.467915e-17)	(7.261084e-10 6.130445e-09 -2.675339e-10)
0.315         	(4.194254e-07 -1.023169e-07 -2.547025e-10)	(4.200894e-07 -1.082405e-07 -2.144010e-17)	(-6.640724e-10 5.923673e-09 -2.547025e-10)
0.3225        	(3.524479e-07 -1.075312e-07 -2.418687e-10)	(3.538294e-07 -1.133050e-07 -2.133845e-17)	(-1.381477e-09 5.773856e-09 -2.418687e-10)
0.33          	(3.278874e-07 -1.362399e-07 -2.321685e-10)	(3.290561e-07 -1.417592e-07 -1.892610e-17)	(-1.168670e-09 5.519235e-09 -2.321685e-10)
0.3375        	(2.720315e-07 -1.176118e-07 -2.210015e-10)	(2.745311e-07 -1.228901e-07 -1.803841e-17)	(-2.499538e-09 5.278278e-09 -2.210015e-10)
0.345         	(3.209196e-07 -1.116368e-07 -2.083611e-10)	(3.244702e-07 -1.167373e-07 -1.702197e-17)	(-3.550653e-09 5.100493e-09 -2.083611e-10)
0.3525        	(2.983981e-07 -1.269377e-07 -1.973675e-10)	(3.018572e-07 -1.318501e-07 -1.597843e-17)	(-3.459103e-09 4.912380e-09 -1.973675e-10)
0.36          	(3.210703e-07 -9.449896e-08 -1.839776e-10)	(3.250648e-07 -9.926236e-08 -1.331536e-17)	(-3.994484e-09 4.763396e-09 -1.839775e-10)
0.3675        	(5.386288e-07 1.538800e-08 -1.465064e-10)	(5.419140e-07 1.064404e-08 -9.798477e-18)	(-3.285223e-09 4.743968e-09 -1.465064e-10)
0.375         	(3.777764e-07 -1.157148e-07 -1.288745e-10)	(3.789621e-07 -1.203695e-07 -1.141123e-17)	(-1.185662e-09 4.654745e-09 -1.288745e-10)
0.3825        	(3.345553e-07 -1.391589e-07 -1.241374e-10)	(3.349834e-07 -1.436281e-07 -1.065906e-17)	(-4.281043e-10 4.469175e-09 -1.241374e-10)
0.39          	(4.648525e-07 1.563458e-08 -9.473906e-11)	(4.650404e-07 1.121440e-08 -7.819808e-18)	(-1.878871e-10 4.420187e-09 -9.473905e-11)
0.3975        	(1.955960e-07 -1.208357e-07 -8.035100e-11)	(1.968227e-07 -1.250958e-07 -6.728830e-18)	(-1.226667e-09 4.260150e-09 -8.035100e-11)
0.405         	(3.347183e-07 -1.085730e-07 -7.591458e-11)	(3.359131e-07 -1.126861e-07 -7.724940e-18)	(-1.194801e-09 4.113038e-09 -7.591457e-11)
0.4125        	(5.023742e-07 9.686618e-09 -5.177012e-11)	(5.014473e-07 5.594252e-09 -2.940898e-18)	(9.268860e-10 4.092366e-09 -5.177011e-11)
0.42          	(5.770794e-07 2.110394e-08 -2.318383e-11)	(5.747839e-07 1.697156e-08 -2.615638e-18)	(2.295503e-09 4.132381e-09 -2.318383e-11)
0.4275        	(3.759224e-07 1.992386e-08 5.828204e-13)	(3.739963e-07 1.577445e-08 -3.361027e-18)	(1.926152e-09 4.149414e-09 5.828238e-13)
0.435         	(5.055579e-07 2.242359e-08 2.026671e-11)	(5.024118e-07 1.826354e-08 3.794708e-19)	(3.146025e-09 4.160058e-09 2.026670e-11)
0.4425        	(4.193181e-07 1.768755e-08 3.802647e-11)	(4.154443e-07 1.354195e-08 -1.185846e-18)	(3.873821e-09 4.145598e-09 3.802647e-11)
0.45          	(4.398391e-07 1.868896e-08 5.399344e-11)	(4.356809e-07 1.459497e-08 -7.318365e-19)	(4.158166e-09 4.093995e-09 5.399344e-11)
0.4575        	(5.020566e-07 2.351288e-08 6.734475e-11)	(4.966568e-07 1.943985e-08 -2.303930e-19)	(5.399860e-09 4.073034e-09 6.734475e-11)
0.465         	(4.657560e-07 1.684969e-08 8.054233e-11)	(4.592965e-07 1.280191e-08 2.561428e-18)	(6.459505e-09 4.047779e-09 8.054232e-11)
0.4725        	(4.600905e-07 2.008548e-08 9.218372e-11)	(4.523322e-07 1.609409e-08 8.876905e-19)	(7.758354e-09 3.991387e-09 9.218372e-11)
0.48          	(4.734122e-07 1.994598e-08 1.023860e-10)	(4.649086e-07 1.601352e-08 2.663072e-18)	(8.503550e-09 3.932456e-09 1.023860e-10)
0.4875        	(6.174846e-07 1.894120e-08 1.123273e-10)	(6.067480e-07 1.506099e-08 2.920570e-18)	(1.073663e-08 3.880208e-09 1.123273e-10)
0.495         	(3.046410e-07 2.205355e-08 1.210213e-10)	(2.940440e-07 1.822824e-08 3.645630e-18)	(1.059703e-08 3.825310e-09 1.210213e-10)
0.5025        	(5.273831e-07 1.840365e-08 1.293562e-10)	(5.171740e-07 1.466061e-08 3.903128e-18)	(1.020906e-08 3.743041e-09 1.293562e-10)
0.51          	(5.122924e-07 2.201716e-08 1.372826e-10)	(5.011451e-07 1.831985e-08 5.658180e-18)	(1.114733e-08 3.697313e-09 1.372826e-10)
0.5175        	(4.937037e-07 2.095230e-08 1.446837e-10)	(4.802458e-07 1.729719e-08 3.523657e-18)	(1.345794e-08 3.655111e-09 1.446837e-10)
0.525         	(3.866563e-07 1.704933e-08 1.507878e-10)	(3.725553e-07 1.344541e-08 4.540097e-18)	(1.410102e-08 3.603921e-09 1.507878e-10)
0.5325        	(4.844774e-07 2.122055e-08 1.567175e-10)	(4.685726e-07 1.766825e-08 5.068645e-18)	(1.590483e-08 3.552300e-09 1.567175e-10)
0.54          	(4.875310e-07 1.669108e-08 1.627590e-10)	(4.693495e-07 1.319960e-08 5.651404e-18)	(1.818142e-08 3.491485e-09 1.627590e-10)
0.5475        	(4.698944e-07 1.968962e-08 1.684315e-10)	(4.511603e-07 1.625010e-08 5.068645e-18)	(1.873404e-08 3.439517e-09 1.684314e-10)
0.555         	(4.237292e-07 1.870296e-08 1.727049e-10)	(4.046743e-07 1.531837e-08 6.823697e-18)	(1.905492e-08 3.384589e-09 1.727049e-10)
0.5625        	(5.642084e-07 1.831097e-08 1.766995e-10)	(5.431395e-07 1.498097e-08 5.400682e-18)	(2.106886e-08 3.330004e-09 1.766995e-10)
0.57          	(4.299196e-07 1.636035e-08 1.810361e-10)	(4.074797e-07 1.309756e-08 6.444227e-18)	(2.243989e-08 3.262795e-09 1.810361e-10)
0.5775        	(4.941075e-07 1.999870e-08 1.848972e-10)	(4.715407e-07 1.679648e-08 7.521653e-18)	(2.256674e-08 3.202219e-09 1.848972e-10)
0.585         	(4.910780e-07 1.734054e-08 1.879320e-10)	(4.679185e-07 1.419708e-08 5.055093e-18)	(2.315949e-08 3.143451e-09 1.879320e-10)
0.5925        	(4.808306e-07 1.818685e-08 1.908844e-10)	(4.568879e-07 1.509663e-08 8.185726e-18)	(2.394274e-08 3.090218e-09 1.908844e-10)
0.6           	(4.315525e-07 1.751292e-08 1.938766e-10)	(4.073792e-07 1.448360e-08 7.081195e-18)	(2.417327e-08 3.029316e-09 1.938766e-10)
0.6075        	(5.287964e-07 1.916803e-08 1.965936e-10)	(5.037756e-07 1.618120e-08 7.487771e-18)	(2.502079e-08 2.986827e-09 1.965936e-10)
0.615         	(4.629507e-07 1.706426e-08 1.990314e-10)	(4.373284e-07 1.413559e-08 7.176063e-18)	(2.562236e-08 2.928674e-09 1.990314e-10)
0.6225        	(5.379042e-07 1.824939e-08 2.008609e-10)	(5.108806e-07 1.537177e-08 7.616520e-18)	(2.702363e-08 2.877627e-09 2.008608e-10)
0.63          	(5.033911e-07 1.631831e-08 2.035696e-10)	(4.754794e-07 1.349520e-08 7.020209e-18)	(2.791170e-08 2.823109e-09 2.035696e-10)
0.6375        	(4.228003e-07 1.461986e-08 2.057376e-10)	(3.943083e-07 1.184154e-08 7.115077e-18)	(2.849198e-08 2.778318e-09 2.057376e-10)
0.645         	(5.430492e-07 1.662230e-08 2.068610e-10)	(5.141955e-07 1.391424e-08 7.562310e-18)	(2.885369e-08 2.708061e-09 2.068610e-10)
0.6525        	(4.593811e-07 1.542525e-08 2.074091e-10)	(4.299615e-07 1.278358e-08 7.413232e-18)	(2.941960e-08 2.641672e-09 2.074091e-10)
0.66          	(5.117520e-07 1.951008e-08 2.082799e-10)	(4.813872e-07 1.690894e-08 6.925341e-18)	(3.036478e-08 2.601144e-09 2.082799e-10)
0.6675        	(5.095920e-07 1.444413e-08 2.093531e-10)	(4.780024e-07 1.188049e-08 8.212831e-18)	(3.158962e-08 2.563634e-09 2.093531e-10)
0.675         	(5.317637e-07 1.642095e-08 2.101147e-10)	(4.993126e-07 1.391635e-08 8.355133e-18)	(3.245115e-08 2.504600e-09 2.101147e-10)
0.6825        	(4.788436e-07 1.257035e-08 2.111074e-10)	(4.456121e-07 1.013444e-08 7.196392e-18)	(3.323147e-08 2.435902e-09 2.111074e-10)
0.69          	(5.222029e-07 1.641733e-08 2.114122e-10)	(4.882427e-07 1.403833e-08 8.585526e-18)	(3.396017e-08 2.378999e-09 2.114121e-10)
0.6975        	(5.896681e-07 1.721198e-08 2.118281e-10)	(5.547792e-07 1.486929e-08 6.925341e-18)	(3.488891e-08 2.342696e-09 2.118281e-10)
0.705         	(5.000895e-07 1.321875e-08 2.125305e-10)	(4.641908e-07 1.092419e-08 8.707499e-18)	(3.589871e-08 2.294564e-09 2.125305e-10)
0.7125        	(4.398352e-07 1.658251e-08 2.126281e-10)	(4.036782e-07 1.434121e-08 7.040538e-18)	(3.615694e-08 2.241300e-09 2.126281e-10)
0.72          	(4.833073e-07 1.133069e-08 2.130094e-10)	(4.471209e-07 9.162209e-09 8.239937e-18)	(3.618640e-08 2.168479e-09 2.130094e-10)
0.7275        	(5.954367e-07 1.690105e-08 2.126837e-10)	(5.582005e-07 1.478393e-08 8.497435e-18)	(3.723612e-08 2.117123e-09 2.126837e-10)
0.735         	(4.627456e-07 5.214974e-08 1.988591e-10)	(4.231769e-07 5.002701e-08 4.750161e-18)	(3.956866e-08 2.122730e-09 1.988591e-10)
0.7425        	(4.238634e-07 4.708887e-08 1.830917e-10)	(3.818885e-07 4.494947e-08 5.780153e-18)	(4.197493e-08 2.139401e-09 1.830916e-10)
0.75          	(5.516674e-07 4.801660e-08 1.713936e-10)	(5.073043e-07 4.588825e-08 2.737610e-18)	(4.436307e-08 2.128350e-09 1.713936e-10)
0.7575        	(4.440539e-07 4.537657e-08 1.618151e-10)	(3.981345e-07 4.328405e-08 4.960225e-18)	(4.591946e-08 2.092523e-09 1.618151e-10)
0.765         	(4.696866e-07 4.357514e-08 1.539103e-10)	(4.236826e-07 4.157104e-08 1.368805e-18)	(4.600404e-08 2.004106e-09 1.539103e-10)
0.7725        	(5.191626e-07 4.427401e-08 1.469449e-10)	(4.716080e-07 4.232160e-08 3.842141e-18)	(4.755458e-08 1.952412e-09 1.469449e-10)
0.78          	(4.388684e-07 4.031957e-08 1.407186e-10)	(3.904752e-07 3.844373e-08 -1.558541e-19)	(4.839326e-08 1.875840e-09 1.407186e-10)
0.7875        	(5.744168e-07 4.219411e-08 1.350865e-10)	(5.247985e-07 4.038097e-08 2.893465e-18)	(4.961833e-08 1.813141e-09 1.350865e-10)
0.795         	(6.460622e-07 4.402203e-08 1.299609e-10)	(5.943108e-07 4.224748e-08 -3.388132e-19)	(5.175143e-08 1.774558e-09 1.299609e-10)
0.8025        	(5.457020e-07 3.876008e-08 1.252556e-10)	(4.931909e-07 3.706528e-08 2.419126e-18)	(5.251108e-08 1.694798e-09 1.252555e-10)
0.81          	(6.022103e-07 3.964085e-08 1.209974e-10)	(5.492790e-07 3.802960e-08 -1.375582e-18)	(5.293133e-08 1.611255e-09 1.209974e-10)
0.8175        	(5.797649e-07 3.860908e-08 1.169136e-10)	(5.262091e-07 3.707172e-08 1.131636e-18)	(5.355581e-08 1.537365e-09 1.169136e-10)
0.825         	(5.624191e-07 3.721342e-08 1.132125e-10)	(5.083916e-07 3.574683e-08 -1.592422e-18)	(5.402753e-08 1.466591e-09 1.132125e-10)
0.8325        	(5.544410e-07 3.465448e-08 1.096214e-10)	(4.999206e-07 3.326298e-08 1.809262e-18)	(5.452038e-08 1.391503e-09 1.096214e-10)
0.84          	(5.983589e-07 3.547206e-08 1.062785e-10)	(5.430671e-07 3.414190e-08 -8.605855e-19)	(5.529181e-08 1.330158e-09 1.062785e-10)
0.8475        	(6.157288e-07 3.486118e-08 1.030016e-10)	(5.597326e-07 3.360686e-08 -2.032879e-19)	(5.599619e-08 1.254316e-09 1.030016e-10)
0.855         	(6.374507e-07 3.467504e-08 9.995485e-11)	(5.810562e-07 3.348909e-08 -7.250602e-19)	(5.639453e-08 1.185948e-09 9.995485e-11)
0.8625        	(6.013045e-07 3.117051e-08 9.714436e-11)	(5.447211e-07 3.008237e-08 -3.388132e-19)	(5.658348e-08 1.088139e-09 9.714436e-11)
0.87          	(5.921707e-07 3.228294e-08 9.446432e-11)	(5.354085e-07 3.126403e-08 -1.145189e-18)	(5.676220e-08 1.018908e-09 9.446432e-11)
0.8775        	(6.792249e-07 3.096519e-08 9.181128e-11)	(6.216281e-07 3.002005e-08 -8.470329e-19)	(5.759686e-08 9.451420e-10 9.181128e-11)
0.885         	(5.701480e-07 3.067176e-08 8.923731e-11)	(5.125737e-07 2.979615e-08 -1.687290e-18)	(5.757424e-08 8.756076e-10 8.923731e-11)
0.8925        	(7.204223e-07 2.950101e-08 8.666510e-11)	(6.653516e-07 2.878478e-08 -6.911789e-19)	(5.507072e-08 7.162355e-10 8.666510e-11)
0.9           	(6.545200e-07 3.172038e-08 8.432448e-11)	(5.997025e-07 3.106536e-08 1.524659e-18)	(5.481749e-08 6.550189e-10 8.432447e-11)
0.9075        	(6.416320e-07 2.509122e-08 8.219734e-11)	(5.858965e-07 2.452241e-08 -1.273938e-18)	(5.573552e-08 5.688136e-10 8.219734e-11)
0.915         	(6.712789e-07 2.921722e-08 8.015218e-11)	(6.151685e-07 2.870825e-08 -9.961107e-19)	(5.611046e-08 5.089689e-10 8.015218e-11)
0.9225        	(6.220648e-07 2.439638e-08 7.823874e-11)	(5.658856e-07 2.398616e-08 1.694066e-19)	(5.617914e-08 4.102247e-10 7.823874e-11)
0.93          	(6.892749e-07 2.929257e-08 7.630498e-11)	(6.328311e-07 2.892612e-08 -7.115077e-19)	(5.644375e-08 3.664562e-10 7.630498e-11)
0.9375        	(6.912893e-07 2.360701e-08 7.446192e-11)	(6.345534e-07 2.333151e-08 -1.043545e-18)	(5.673590e-08 2.754914e-10 7.446192e-11)
0.945         	(7.077730e-07 2.765011e-08 7.274296e-11)	(6.512299e-07 2.743727e-08 8.809143e-19)	(5.654312e-08 2.128396e-10 7.274296e-11)
0.9525        	(6.901334e-07 2.136411e-08 7.104966e-11)	(6.334432e-07 2.125074e-08 -7.318365e-19)	(5.669023e-08 1.133737e-10 7.104966e-11)
0.96          	(6.723892e-07 2.620179e-08 6.947281e-11)	(6.155782e-07 2.614135e-08 -1.267161e-18)	(5.681094e-08 6.043577e-11 6.947281e-11)
0.9675        	(6.752640e-07 1.959797e-08 6.797958e-11)	(6.185266e-07 1.964049e-08 6.098637e-19)	(5.673743e-08 -4.251771e-11 6.797958e-11)
0.975         	(6.930213e-07 2.447438e-08 6.660547e-11)	(6.359560e-07 2.456266e-08 -1.287490e-19)	(5.706537e-08 -8.828226e-11 6.660547e-11)
0.9825        	(7.404081e-07 1.937068e-08 1.521528e-10)	(6.836448e-07 1.957165e-08 -1.233280e-18)	(5.676334e-08 -2.009709e-10 1.521528e-10)
0.99          	(7.195742e-07 2.440943e-08 2.619145e-10)	(6.630385e-07 2.466844e-08 -1.917683e-18)	(5.653570e-08 -2.590058e-10 2.619145e-10)
0.9975        	(7.864521e-07 1.910062e-08 3.466881e-10)	(7.297196e-07 1.946401e-08 1.897354e-19)	(5.673247e-08 -3.633846e-10 3.466881e-10)
1.005         	(7.714846e-07 2.469062e-08 4.122381e-10)	(7.143115e-07 2.509035e-08 -2.473336e-18)	(5.717314e-08 -3.997275e-10 4.122381e-10)
1.0125        	(7.492506e-07 1.563537e-08 4.623803e-10)	(6.921557e-07 1.614619e-08 1.124860e-18)	(5.709495e-08 -5.108182e-10 4.623803e-10)
1.02          	(7.065380e-07 2.251417e-08 5.001454e-10)	(6.500053e-07 2.307537e-08 2.114194e-18)	(5.653275e-08 -5.611980e-10 5.001454e-10)
1.0275        	(7.978807e-07 1.459860e-08 5.272078e-10)	(7.411868e-07 1.526534e-08 -3.388132e-20)	(5.669393e-08 -6.667404e-10 5.272078e-10)
1.035         	(7.317945e-07 2.073744e-08 5.456321e-10)	(6.751945e-07 2.144662e-08 6.877908e-18)	(5.659995e-08 -7.091819e-10 5.456321e-10)
1.0425        	(7.431743e-07 1.280041e-08 5.567202e-10)	(6.869558e-07 1.361910e-08 -7.657178e-19)	(5.621850e-08 -8.186831e-10 5.567202e-10)
1.05          	(7.823584e-07 2.059879e-08 5.615338e-10)	(7.260816e-07 2.145098e-08 7.630073e-18)	(5.627685e-08 -8.521911e-10 5.615338e-10)
1.0575        	(7.436986e-07 1.091411e-08 5.606923e-10)	(6.876069e-07 1.187263e-08 -6.844026e-19)	(5.609170e-08 -9.585115e-10 5.606923e-10)
1.065         	(7.897431e-07 1.962787e-08 5.554102e-10)	(7.338308e-07 2.062640e-08 8.029872e-18)	(5.591231e-08 -9.985348e-10 5.554102e-10)
1.0725        	(7.942711e-07 1.050374e-08 5.460043e-10)	(7.382374e-07 1.159534e-08 2.270048e-18)	(5.603371e-08 -1.091606e-09 5.460043e-10)
1.08          	(7.356027e-07 1.787923e-08 5.330556e-10)	(6.798229e-07 1.900699e-08 6.234162e-18)	(5.577976e-08 -1.127768e-09 5.330556e-10)
1.0875        	(7.950597e-07 1.013262e-08 5.169580e-10)	(7.399650e-07 1.136777e-08 5.271933e-18)	(5.509475e-08 -1.235143e-09 5.169580e-10)
1.095         	(7.656870e-07 1.634706e-08 4.981813e-10)	(7.109611e-07 1.762637e-08 5.143184e-18)	(5.472588e-08 -1.279318e-09 4.981813e-10)
1.1025        	(7.740938e-07 8.995870e-09 4.768598e-10)	(7.196697e-07 1.037116e-08 6.898236e-18)	(5.442413e-08 -1.375285e-09 4.768598e-10)
1.11          	(8.309832e-07 1.665793e-08 4.534209e-10)	(7.763687e-07 1.806284e-08 6.071532e-18)	(5.461451e-08 -1.404910e-09 4.534209e-10)
1.1175        	(7.513878e-07 6.917128e-09 4.281997e-10)	(6.973657e-07 8.422590e-09 6.579752e-18)	(5.402212e-08 -1.505462e-09 4.281997e-10)
1.125         	(8.379611e-07 1.536129e-08 4.011586e-10)	(7.836106e-07 1.689630e-08 6.186729e-18)	(5.435048e-08 -1.535010e-09 4.011586e-10)
1.1325        	(8.047220e-07 8.671449e-09 3.729478e-10)	(7.500742e-07 1.027492e-08 6.620410e-18)	(5.464788e-08 -1.603475e-09 3.729478e-10)
1.14          	(8.119783e-07 1.361607e-08 3.437423e-10)	(7.580880e-07 1.527136e-08 6.451003e-18)	(5.389034e-08 -1.655293e-09 3.437423e-10)
1.1475        	(7.834904e-07 7.217767e-09 3.134978e-10)	(7.301929e-07 8.959933e-09 6.423898e-18)	(5.329754e-08 -1.742166e-09 3.134978e-10)
1.155         	(8.089264e-07 1.190417e-08 2.824905e-10)	(7.558622e-07 1.369054e-08 8.111188e-18)	(5.306418e-08 -1.786367e-09 2.824905e-10)
1.1625        	(7.613078e-07 5.376210e-09 2.508589e-10)	(7.087665e-07 7.248847e-09 7.833361e-18)	(5.254126e-08 -1.872637e-09 2.508589e-10)
1.17          	(8.576342e-07 1.190305e-08 2.186032e-10)	(8.050183e-07 1.381463e-08 7.230273e-18)	(5.261593e-08 -1.911576e-09 2.186032e-10)
1.1775        	(7.962556e-07 5.883102e-09 1.857758e-10)	(7.439706e-07 7.872552e-09 7.325141e-18)	(5.228501e-08 -1.989450e-09 1.857757e-10)
1.185         	(8.291262e-07 1.046965e-08 1.525789e-10)	(7.773197e-07 1.250342e-08 8.937892e-18)	(5.180643e-08 -2.033775e-09 1.525789e-10)
1.1925        	(8.247087e-07 5.964677e-09 1.192007e-10)	(7.734215e-07 8.074485e-09 7.447114e-18)	(5.128716e-08 -2.109807e-09 1.192007e-10)
1.2           	(7.870919e-07 8.983268e-09 8.571699e-11)	(7.361795e-07 1.114090e-08 7.467442e-18)	(5.091239e-08 -2.157636e-09 8.571698e-11)
1.2075        	(8.601870e-07 5.914609e-09 5.203962e-11)	(8.092705e-07 8.136415e-09 7.176063e-18)	(5.091651e-08 -2.221806e-09 5.203961e-11)
1.215         	(7.980027e-07 7.416575e-09 1.840080e-11)	(7.473950e-07 9.688175e-09 7.447114e-18)	(5.060772e-08 -2.271600e-09 1.840080e-11)
1.2225        	(8.183818e-07 4.903344e-09 -1.500990e-11)	(7.682900e-07 7.243561e-09 7.765598e-18)	(5.009187e-08 -2.340217e-09 -1.500990e-11)
1.23          	(8.285000e-07 6.884771e-09 -4.822344e-11)	(7.783843e-07 9.271785e-09 7.704612e-18)	(5.011567e-08 -2.387014e-09 -4.822345e-11)
1.2375        	(7.960169e-07 4.396422e-09 -8.126119e-11)	(7.462201e-07 6.844808e-09 8.883682e-18)	(4.979679e-08 -2.448386e-09 -8.126120e-11)
1.245         	(8.557088e-07 7.185122e-09 -1.139691e-10)	(8.060678e-07 9.677804e-09 7.277707e-18)	(4.964098e-08 -2.492683e-09 -1.139691e-10)
1.2525        	(7.686475e-07 3.916972e-09 -1.464662e-10)	(7.195817e-07 6.467276e-09 7.691059e-18)	(4.906573e-08 -2.550304e-09 -1.464662e-10)
1.26          	(9.074530e-07 6.143674e-09 -1.782393e-10)	(8.578632e-07 8.736771e-09 8.680394e-18)	(4.958984e-08 -2.593098e-09 -1.782393e-10)
1.2675        	(8.757107e-07 6.146439e-09 -2.098456e-10)	(8.257575e-07 8.781369e-09 7.006657e-18)	(4.995323e-08 -2.634930e-09 -2.098456e-10)
1.275         	(7.909199e-07 3.059800e-09 -2.407699e-10)	(7.414862e-07 5.757918e-09 8.097635e-18)	(4.943369e-08 -2.698119e-09 -2.407699e-10)
1.2825        	(8.362776e-07 5.161891e-09 -2.710607e-10)	(7.873328e-07 7.907115e-09 6.566199e-18)	(4.894481e-08 -2.745224e-09 -2.710607e-10)
1.29          	(8.247843e-07 2.897004e-09 -3.007581e-10)	(7.761249e-07 5.694994e-09 9.866240e-18)	(4.865932e-08 -2.797990e-09 -3.007581e-10)
1.2975        	(8.630093e-07 3.051897e-09 -3.288468e-10)	(8.145794e-07 5.879647e-09 6.186729e-18)	(4.842999e-08 -2.827751e-09 -3.288468e-10)
1.305         	(8.562397e-07 2.431981e-09 -3.559790e-10)	(8.079680e-07 5.291978e-09 8.660065e-18)	(4.827174e-08 -2.859996e-09 -3.559790e-10)
1.3125        	(8.230750e-07 2.568885e-09 -3.829704e-10)	(7.752571e-07 5.452822e-09 6.667843e-18)	(4.781788e-08 -2.883937e-09 -3.829704e-10)
1.32          	(8.907232e-07 3.296520e-09 -4.093293e-10)	(8.429538e-07 6.209922e-09 8.267042e-18)	(4.776938e-08 -2.913402e-09 -4.093293e-10)
1.3275        	(8.560469e-07 3.360769e-09 -4.353226e-10)	(8.084485e-07 6.293698e-09 6.816921e-18)	(4.759841e-08 -2.932929e-09 -4.353226e-10)
1.335         	(8.570502e-07 2.629213e-09 -4.606099e-10)	(8.096448e-07 5.597362e-09 7.799479e-18)	(4.740540e-08 -2.968149e-09 -4.606099e-10)
1.3425        	(8.583132e-07 3.570117e-09 -4.852668e-10)	(8.112547e-07 6.558394e-09 6.071532e-18)	(4.705844e-08 -2.988276e-09 -4.852668e-10)
1.35          	(8.711137e-07 3.203884e-09 -5.092538e-10)	(8.240686e-07 6.225272e-09 5.163513e-18)	(4.704510e-08 -3.021388e-09 -5.092538e-10)
1.3575        	(8.550916e-07 3.150308e-09 -5.324759e-10)	(8.082769e-07 6.201094e-09 7.691059e-18)	(4.681467e-08 -3.050786e-09 -5.324759e-10)
1.365         	(8.604791e-07 3.248661e-09 -5.551146e-10)	(8.139252e-07 6.331435e-09 6.620410e-18)	(4.655392e-08 -3.082774e-09 -5.551146e-10)
1.3725        	(8.748095e-07 3.314243e-09 -5.768280e-10)	(8.286623e-07 6.427946e-09 6.776264e-18)	(4.614727e-08 -3.113703e-09 -5.768280e-10)
1.38          	(8.498531e-07 3.323794e-09 -5.977448e-10)	(8.039443e-07 6.472687e-09 8.653289e-18)	(4.590872e-08 -3.148893e-09 -5.977448e-10)
1.3875        	(8.397370e-07 3.584599e-09 -6.180154e-10)	(7.939578e-07 6.761560e-09 5.969888e-18)	(4.577927e-08 -3.176961e-09 -6.180154e-10)
1.395         	(8.967573e-07 3.669294e-09 -6.376397e-10)	(8.509623e-07 6.875500e-09 7.758822e-18)	(4.579501e-08 -3.206205e-09 -6.376397e-10)
1.4025        	(8.530659e-07 3.556929e-09 -6.563657e-10)	(8.076915e-07 6.790084e-09 5.576865e-18)	(4.537436e-08 -3.233154e-09 -6.563657e-10)
1.41          	(9.378681e-07 5.123605e-09 -6.742470e-10)	(8.922396e-07 8.372540e-09 7.033762e-18)	(4.562853e-08 -3.248935e-09 -6.742470e-10)
1.4175        	(8.798804e-07 4.101309e-09 -6.911771e-10)	(8.344368e-07 7.370723e-09 6.396793e-18)	(4.544368e-08 -3.269414e-09 -6.911771e-10)
1.425         	(8.386265e-07 3.697885e-09 -7.074807e-10)	(7.935649e-07 6.998856e-09 6.633962e-18)	(4.506162e-08 -3.300971e-09 -7.074807e-10)
1.4325        	(9.064133e-07 3.899167e-09 -7.229494e-10)	(8.614435e-07 7.231484e-09 6.396793e-18)	(4.496976e-08 -3.332317e-09 -7.229494e-10)
1.44          	(8.674450e-07 4.325556e-09 -7.375369e-10)	(8.225273e-07 7.683482e-09 6.139295e-18)	(4.491764e-08 -3.357926e-09 -7.375369e-10)
1.4475        	(8.802953e-07 3.582939e-09 -7.513403e-10)	(8.358391e-07 6.973407e-09 6.044427e-18)	(4.445615e-08 -3.390468e-09 -7.513404e-10)
1.455         	(8.572907e-07 4.631573e-09 -7.643741e-10)	(8.133645e-07 8.045793e-09 5.380353e-18)	(4.392620e-08 -3.414221e-09 -7.643741e-10)
1.4625        	(8.823698e-07 4.854811e-09 -7.767707e-10)	(8.387873e-07 8.292183e-09 6.329030e-18)	(4.358253e-08 -3.437372e-09 -7.767707e-10)
1.47          	(8.810382e-07 4.338516e-09 -7.883738e-10)	(8.377107e-07 7.796356e-09 7.128629e-18)	(4.332758e-08 -3.457840e-09 -7.883738e-10)
1.4775        	(9.057412e-07 4.105702e-09 -7.990833e-10)	(8.628115e-07 7.597536e-09 5.936007e-18)	(4.292963e-08 -3.491834e-09 -7.990833e-10)
1.485         	(8.882081e-07 5.209328e-09 -8.090066e-10)	(8.456474e-07 8.721471e-09 6.891460e-18)	(4.256063e-08 -3.512142e-09 -8.090066e-10)
1.4925        	(9.083219e-07 4.210888e-09 -8.181360e-10)	(8.660288e-07 7.750079e-09 5.522655e-18)	(4.229304e-08 -3.539191e-09 -8.181360e-10)
1.5           	(8.676457e-07 4.750697e-09 -8.265612e-10)	(8.258026e-07 8.309828e-09 5.719166e-18)	(4.184311e-08 -3.559132e-09 -8.265612e-10)
1.5075        	(9.077895e-07 4.868601e-09 -8.341411e-10)	(8.662885e-07 8.452814e-09 4.831476e-18)	(4.150104e-08 -3.584213e-09 -8.341411e-10)
1.515         	(8.852756e-07 5.678687e-09 -8.410117e-10)	(8.441762e-07 9.277079e-09 5.671733e-18)	(4.109942e-08 -3.598393e-09 -8.410117e-10)
1.5225        	(9.236621e-07 5.075366e-09 -8.470800e-10)	(8.828360e-07 8.700391e-09 6.057980e-18)	(4.082605e-08 -3.625025e-09 -8.470800e-10)
1.53          	(9.015681e-07 5.876892e-09 -8.524842e-10)	(8.609919e-07 9.512880e-09 5.570089e-18)	(4.057622e-08 -3.635988e-09 -8.524842e-10)
1.5375        	(8.858992e-07 3.936154e-09 -8.573022e-10)	(8.458379e-07 7.604765e-09 4.994106e-18)	(4.006125e-08 -3.668611e-09 -8.573022e-10)
1.545         	(8.926637e-07 6.188179e-09 -8.614283e-10)	(8.531066e-07 9.869606e-09 5.495550e-18)	(3.955710e-08 -3.681428e-09 -8.614283e-10)
1.5525        	(9.143723e-07 4.501451e-09 -8.647906e-10)	(8.751296e-07 8.211873e-09 4.933120e-18)	(3.924277e-08 -3.710422e-09 -8.647906e-10)
1.56          	(9.246478e-07 7.495993e-09 -8.675501e-10)	(8.856044e-07 1.120938e-08 5.048316e-18)	(3.904338e-08 -3.713389e-09 -8.675502e-10)
1.5675        	(9.012308e-07 4.107033e-09 -8.697024e-10)	(8.626655e-07 7.853263e-09 4.221612e-18)	(3.856527e-08 -3.746231e-09 -8.697024e-10)
1.575         	(9.143059e-07 7.198582e-09 -8.713260e-10)	(8.761334e-07 1.095192e-08 5.299038e-18)	(3.817248e-08 -3.753339e-09 -8.713260e-10)
1.5825        	(9.246617e-07 5.006849e-09 -8.722150e-10)	(8.867657e-07 8.788249e-09 4.011548e-18)	(3.789602e-08 -3.781400e-09 -8.722150e-10)
1.59          	(9.869796e-07 8.493421e-09 -8.722937e-10)	(9.488997e-07 1.227190e-08 5.942783e-18)	(3.807985e-08 -3.778475e-09 -8.722937e-10)