# Force       
# CofR        : 0.000000e+00 0.000000e+00 0.000000e+00
#
# Time        	total_x total_y total_z	pressure_x pressure_y pressure_z	viscous_x viscous_y viscous_z
0.003125      	-9.516151e-05 -3.277185e-04 9.926021e+01	-1.035502e-04 -3.378420e-04 9.876612e+01	8.388697e-06 1.012353e-05 4.940918e-01
0.00625       	5.009395e-05 3.511326e-06 -5.434637e+00	4.013308e-05 -1.643435e-05 -5.710438e+00	9.960873e-06 1.994568e-05 2.758015e-01
0.009375      	-7.757469e-06 -7.950413e-05 -1.827929e+01	-1.546523e-05 -1.040843e-04 -1.848034e+01	7.707757e-06 2.458014e-05 2.010497e-01
0.0125        	-8.684334e-07 -5.198403e-06 -6.860659e-01	-1.059974e-05 -3.194467e-05 -8.173024e-01	9.731304e-06 2.674627e-05 1.312364e-01
0.015625      	-2.545202e-05 -5.161197e-05 2.366106e+00	-3.922631e-05 -7.949585e-05 2.266114e+00	1.377429e-05 2.788387e-05 9.999173e-02
0.01875       	2.310401e-06 -1.282888e-05 1.905160e-01	-1.446058e-05 -4.167778e-05 1.055445e-01	1.677098e-05 2.884890e-05 8.497152e-02
0.021875      	-1.794483e-06 -2.448635e-05 1.147420e-01	-1.977421e-05 -5.370207e-05 4.212007e-02	1.797973e-05 2.921572e-05 7.262198e-02
0.025         	-8.779118e-06 -2.382734e-05 4.245106e-01	-2.716948e-05 -5.314539e-05 3.610507e-01	1.839036e-05 2.931805e-05 6.345990e-02
0.028125      	-1.112807e-05 -2.894503e-05 4.683633e-01	-2.960575e-05 -5.845532e-05 4.117375e-01	1.847768e-05 2.951029e-05 5.662585e-02
0.03125       	1.720121e-05 1.808958e-05 4.842615e-01	-5.279008e-07 -1.057596e-05 4.330464e-01	1.772912e-05 2.866554e-05 5.121516e-02
0.034375      	-1.259797e-05 -2.360559e-05 4.907969e-01	-2.981711e-05 -5.173486e-05 4.440898e-01	1.721914e-05 2.812927e-05 4.670710e-02
0.0375        	-5.803203e-06 -1.569159e-05 4.915835e-01	-2.260896e-05 -4.337022e-05 4.487564e-01	1.680576e-05 2.767863e-05 4.282706e-02
0.040625      	-1.237937e-06 -6.944768e-06 4.901932e-01	-1.749719e-05 -3.400750e-05 4.507847e-01	1.625926e-05 2.706273e-05 3.940851e-02
0.04375       	9.002212e-06 3.861949e-07 4.859906e-01	-6.114165e-06 -2.568724e-05 4.496456e-01	1.511638e-05 2.607343e-05 3.634500e-02
0.046875      	-4.572275e-06 -1.142128e-05 4.841511e-01	-1.889576e-05 -3.686185e-05 4.505946e-01	1.432348e-05 2.544057e-05 3.355652e-02
0.05          	-7.529755e-07 -7.575722e-06 4.800032e-01	-1.442274e-05 -3.255745e-05 4.490054e-01	1.366977e-05 2.498173e-05 3.099776e-02
0.053125      	-2.066619e-06 -8.847954e-06 4.741259e-01	-1.513533e-05 -3.326840e-05 4.454864e-01	1.306871e-05 2.442044e-05 2.863945e-02
0.05625       	-3.520756e-06 -9.319086e-06 4.685696e-01	-1.621199e-05 -3.330216e-05 4.421164e-01	1.269123e-05 2.398307e-05 2.645325e-02
0.059375      	-1.608349e-06 -8.577639e-06 4.627129e-01	-1.384589e-05 -3.215051e-05 4.382954e-01	1.223754e-05 2.357287e-05 2.441747e-02
0.0625        	-2.886328e-06 -8.743674e-06 4.567794e-01	-1.475157e-05 -3.196401e-05 4.342603e-01	1.186524e-05 2.322034e-05 2.251913e-02
0.065625      	-3.251698e-06 -9.765685e-06 4.505898e-01	-1.486580e-05 -3.268156e-05 4.298413e-01	1.161410e-05 2.291587e-05 2.074854e-02
0.06875       	-2.360497e-06 -9.091668e-06 4.474837e-01	-1.377173e-05 -3.172750e-05 4.283918e-01	1.141124e-05 2.263583e-05 1.909188e-02
0.071875      	1.519910e-07 -7.257494e-06 4.418478e-01	-1.095273e-05 -2.960868e-05 4.243039e-01	1.110472e-05 2.235118e-05 1.754386e-02
0.075         	-3.188370e-06 -1.027502e-05 4.370874e-01	-1.405274e-05 -3.236715e-05 4.209869e-01	1.086437e-05 2.209213e-05 1.610053e-02
0.078125      	-2.908519e-06 -9.521683e-06 4.327498e-01	-1.367441e-05 -3.140225e-05 4.179944e-01	1.076590e-05 2.188057e-05 1.475538e-02
0.08125       	-3.051913e-06 -1.010582e-05 4.284215e-01	-1.374504e-05 -3.179959e-05 4.149178e-01	1.069313e-05 2.169377e-05 1.350372e-02
0.084375      	-3.038870e-06 -1.114477e-05 4.243014e-01	-1.365337e-05 -3.262375e-05 4.119610e-01	1.061450e-05 2.147898e-05 1.234045e-02
0.0875        	-1.101289e-06 -7.763442e-06 4.202640e-01	-1.154110e-05 -2.887245e-05 4.090044e-01	1.043981e-05 2.110901e-05 1.125961e-02
0.090625      	-1.850358e-06 -9.818696e-06 4.167573e-01	-1.219788e-05 -3.059193e-05 4.065024e-01	1.034752e-05 2.077324e-05 1.025488e-02
0.09375       	-2.970284e-06 -1.296124e-05 4.156136e-01	-1.336782e-05 -3.365216e-05 4.062951e-01	1.039753e-05 2.069092e-05 9.318406e-03
0.096875      	-2.921636e-06 -1.206904e-05 4.134271e-01	-1.341092e-05 -3.278185e-05 4.049827e-01	1.048928e-05 2.071281e-05 8.444370e-03
0.1           	-1.320475e-06 -1.144931e-05 4.108650e-01	-1.188684e-05 -3.212185e-05 4.032362e-01	1.056637e-05 2.067254e-05 7.628758e-03
0.103125      	-2.997658e-06 -1.333369e-05 4.090518e-01	-1.366572e-05 -3.401185e-05 4.021843e-01	1.066806e-05 2.067816e-05 6.867476e-03
0.10625       	-3.712830e-06 -1.423368e-05 4.073407e-01	-1.447018e-05 -3.490491e-05 4.011841e-01	1.075735e-05 2.067123e-05 6.156618e-03
0.109375      	-3.029831e-06 -1.316801e-05 4.061828e-01	-1.387827e-05 -3.378426e-05 4.006914e-01	1.084844e-05 2.061625e-05 5.491417e-03
0.1125        	-5.243778e-06 -1.675126e-05 4.050727e-01	-1.616919e-05 -3.726409e-05 4.002048e-01	1.092541e-05 2.051283e-05 4.867968e-03
0.115625      	-3.441668e-06 -1.470298e-05 4.042654e-01	-1.443547e-05 -3.511437e-05 3.999822e-01	1.099381e-05 2.041139e-05 4.283155e-03
0.11875       	-3.710810e-06 -1.552213e-05 4.032290e-01	-1.475618e-05 -3.583464e-05 3.994944e-01	1.104537e-05 2.031251e-05 3.734578e-03
0.121875      	-3.258641e-06 -1.515482e-05 4.041411e-01	-1.435247e-05 -3.537227e-05 4.009240e-01	1.109383e-05 2.021746e-05 3.217074e-03
0.125         	-4.360813e-06 -1.717283e-05 4.047068e-01	-1.552570e-05 -3.727697e-05 4.019779e-01	1.116489e-05 2.010413e-05 2.728920e-03
0.128125      	-5.230936e-06 -1.790178e-05 4.046767e-01	-1.646282e-05 -3.787976e-05 4.024075e-01	1.123188e-05 1.997798e-05 2.269128e-03
0.13125       	-4.877813e-06 -1.808459e-05 4.048248e-01	-1.616192e-05 -3.793658e-05 4.029894e-01	1.128411e-05 1.985199e-05 1.835369e-03
0.134375      	-4.831772e-06 -1.773990e-05 4.055177e-01	-1.617189e-05 -3.747033e-05 4.040928e-01	1.134011e-05 1.973043e-05 1.424947e-03
0.1375        	-4.559098e-06 -1.807059e-05 4.061642e-01	-1.596505e-05 -3.769609e-05 4.051265e-01	1.140595e-05 1.962550e-05 1.037649e-03
0.140625      	-5.641844e-06 -1.899624e-05 4.068572e-01	-1.711535e-05 -3.850383e-05 4.061856e-01	1.147351e-05 1.950759e-05 6.716268e-04
0.14375       	-5.365553e-06 -1.873530e-05 4.076007e-01	-1.688961e-05 -3.811795e-05 4.072766e-01	1.152405e-05 1.938265e-05 3.240736e-04
0.146875      	-5.219037e-06 -1.949284e-05 4.086327e-01	-1.677412e-05 -3.874390e-05 4.086386e-01	1.155509e-05 1.925106e-05 -5.826305e-06
0.15          	-6.134077e-06 -1.957614e-05 4.096236e-01	-1.771682e-05 -3.869894e-05 4.099431e-01	1.158274e-05 1.912279e-05 -3.194491e-04
0.153125      	-6.853426e-06 -2.144728e-05 4.103796e-01	-1.845571e-05 -4.045332e-05 4.109971e-01	1.160228e-05 1.900604e-05 -6.174514e-04
0.15625       	-7.268071e-06 -2.113752e-05 4.128204e-01	-1.892872e-05 -4.002381e-05 4.137214e-01	1.166065e-05 1.888630e-05 -9.010376e-04
0.159375      	-6.714102e-06 -2.049793e-05 4.148165e-01	-1.844973e-05 -3.925480e-05 4.159882e-01	1.173563e-05 1.875687e-05 -1.171666e-03
0.1625        	-6.838492e-06 -2.132240e-05 4.165139e-01	-1.861660e-05 -3.995046e-05 4.179440e-01	1.177811e-05 1.862806e-05 -1.430094e-03
0.165625      	-7.141564e-06 -2.171123e-05 4.182356e-01	-1.893483e-05 -4.021662e-05 4.199122e-01	1.179326e-05 1.850539e-05 -1.676568e-03
0.16875       	-7.254701e-06 -2.231014e-05 4.193245e-01	-1.904694e-05 -4.067682e-05 4.212357e-01	1.179224e-05 1.836668e-05 -1.911214e-03
0.171875      	-6.223516e-06 -2.218083e-05 4.211027e-01	-1.798373e-05 -4.042028e-05 4.232375e-01	1.176022e-05 1.823945e-05 -2.134799e-03
0.175         	-7.511611e-06 -2.219760e-05 4.228061e-01	-1.927108e-05 -4.031994e-05 4.251525e-01	1.175947e-05 1.812234e-05 -2.346327e-03
0.178125      	-8.242258e-06 -2.225329e-05 4.246525e-01	-2.001130e-05 -4.023425e-05 4.271991e-01	1.176904e-05 1.798096e-05 -2.546630e-03
0.18125       	-8.925539e-06 -2.244072e-05 4.267110e-01	-2.070488e-05 -4.029024e-05 4.294522e-01	1.177934e-05 1.784952e-05 -2.741230e-03
0.184375      	-9.094820e-06 -2.269816e-05 4.288098e-01	-2.087460e-05 -4.042380e-05 4.317417e-01	1.177978e-05 1.772564e-05 -2.931835e-03
0.1875        	-9.652689e-06 -2.241555e-05 4.308275e-01	-2.143980e-05 -4.000292e-05 4.339433e-01	1.178711e-05 1.758737e-05 -3.115774e-03
0.190625      	-9.122157e-06 -2.175442e-05 4.327172e-01	-2.088808e-05 -3.917220e-05 4.360090e-01	1.176592e-05 1.741779e-05 -3.291837e-03
0.19375       	-8.652582e-06 -2.318394e-05 4.345358e-01	-2.036882e-05 -4.045204e-05 4.379964e-01	1.171624e-05 1.726810e-05 -3.460645e-03
0.196875      	-8.677184e-06 -2.378928e-05 4.374274e-01	-2.034349e-05 -4.094974e-05 4.410507e-01	1.166630e-05 1.716047e-05 -3.623270e-03
0.2           	-8.788447e-06 -2.418318e-05 4.400092e-01	-2.038815e-05 -4.123909e-05 4.437890e-01	1.159970e-05 1.705590e-05 -3.779767e-03
0.203125      	-9.378553e-06 -2.447563e-05 4.420503e-01	-2.090417e-05 -4.143710e-05 4.459804e-01	1.152562e-05 1.696146e-05 -3.930115e-03
0.20625       	-1.004947e-05 -2.596550e-05 4.441249e-01	-2.152133e-05 -4.286581e-05 4.481994e-01	1.147187e-05 1.690030e-05 -4.074563e-03
0.209375      	-9.633178e-06 -2.177182e-05 4.468248e-01	-2.105095e-05 -3.845635e-05 4.510386e-01	1.141777e-05 1.668453e-05 -4.213749e-03
0.2125        	-1.124142e-05 -2.361115e-05 4.488087e-01	-2.264860e-05 -4.010528e-05 4.531566e-01	1.140718e-05 1.649413e-05 -4.347898e-03
0.215625      	-9.624461e-06 -2.377168e-05 4.510644e-01	-2.097990e-05 -4.014189e-05 4.555406e-01	1.135543e-05 1.637022e-05 -4.476189e-03
0.21875       	-1.040182e-05 -2.397394e-05 4.532384e-01	-2.166790e-05 -4.019884e-05 4.578351e-01	1.126607e-05 1.622489e-05 -4.596672e-03
0.221875      	-1.032202e-05 -2.353242e-05 4.556115e-01	-2.148811e-05 -3.959853e-05 4.603206e-01	1.116609e-05 1.606611e-05 -4.709106e-03
0.225         	-1.069312e-05 -2.345696e-05 4.580576e-01	-2.176940e-05 -3.937723e-05 4.628733e-01	1.107628e-05 1.592028e-05 -4.815683e-03
0.228125      	-1.065791e-05 -2.336487e-05 4.599724e-01	-2.166264e-05 -3.917159e-05 4.648904e-01	1.100472e-05 1.580672e-05 -4.918068e-03
0.23125       	-1.084486e-05 -2.481594e-05 4.621468e-01	-2.178732e-05 -4.050994e-05 4.671633e-01	1.094245e-05 1.569400e-05 -5.016551e-03
0.234375      	-1.060097e-05 -2.340428e-05 4.643482e-01	-2.147439e-05 -3.899345e-05 4.694591e-01	1.087342e-05 1.558916e-05 -5.110893e-03
0.2375        	-1.109999e-05 -2.367329e-05 4.666426e-01	-2.188622e-05 -3.914526e-05 4.718433e-01	1.078623e-05 1.547197e-05 -5.200690e-03
0.240625      	-9.825593e-06 -2.249800e-05 4.689036e-01	-2.051129e-05 -3.783604e-05 4.741897e-01	1.068570e-05 1.533805e-05 -5.286122e-03
0.24375       	-1.170587e-05 -2.392871e-05 4.717089e-01	-2.228362e-05 -3.913319e-05 4.770764e-01	1.057775e-05 1.520448e-05 -5.367576e-03
0.246875      	-1.142130e-05 -2.292494e-05 4.743265e-01	-2.187269e-05 -3.798680e-05 4.797715e-01	1.045140e-05 1.506186e-05 -5.445005e-03
0.25          	-1.254271e-05 -2.379152e-05 4.768245e-01	-2.288722e-05 -3.877254e-05 4.823433e-01	1.034450e-05 1.498102e-05 -5.518765e-03
0.253125      	-1.140610e-05 -2.488097e-05 4.790257e-01	-2.168473e-05 -3.978972e-05 4.846143e-01	1.027864e-05 1.490875e-05 -5.588591e-03
0.25625       	-1.281974e-05 -2.250133e-05 4.812648e-01	-2.302710e-05 -3.732949e-05 4.869195e-01	1.020736e-05 1.482816e-05 -5.654652e-03
0.259375      	-1.214996e-05 -2.335202e-05 4.837257e-01	-2.226419e-05 -3.808317e-05 4.894428e-01	1.011423e-05 1.473115e-05 -5.717101e-03
0.2625        	-1.269829e-05 -2.295096e-05 4.857340e-01	-2.272155e-05 -3.757636e-05 4.915095e-01	1.002326e-05 1.462540e-05 -5.775522e-03
0.265625      	-1.220011e-05 -2.321338e-05 4.880972e-01	-2.213339e-05 -3.771406e-05 4.939273e-01	9.933278e-06 1.450068e-05 -5.830138e-03
0.26875       	-1.247987e-05 -2.340125e-05 4.904326e-01	-2.231755e-05 -3.777549e-05 4.963138e-01	9.837688e-06 1.437424e-05 -5.881183e-03
0.271875      	-1.286028e-05 -2.225308e-05 4.927679e-01	-2.259971e-05 -3.652094e-05 4.986967e-01	9.739432e-06 1.426786e-05 -5.928809e-03
0.275         	-1.248283e-05 -2.297989e-05 4.948626e-01	-2.213013e-05 -3.713233e-05 5.008357e-01	9.647297e-06 1.415243e-05 -5.973096e-03
0.278125      	-1.333234e-05 -2.238920e-05 4.972508e-01	-2.288297e-05 -3.642227e-05 5.032648e-01	9.550624e-06 1.403307e-05 -6.014009e-03
0.28125       	-1.255260e-05 -2.243541e-05 4.994409e-01	-2.200455e-05 -3.635161e-05 5.054925e-01	9.451953e-06 1.391619e-05 -6.051677e-03
0.284375      	-1.319317e-05 -2.203407e-05 5.016833e-01	-2.254666e-05 -3.583333e-05 5.077693e-01	9.353489e-06 1.379926e-05 -6.086010e-03
0.2875        	-1.334639e-05 -2.222206e-05 5.039753e-01	-2.259226e-05 -3.589565e-05 5.100927e-01	9.245873e-06 1.367358e-05 -6.117459e-03
0.290625      	-1.402159e-05 -2.246930e-05 5.061221e-01	-2.316444e-05 -3.601088e-05 5.122678e-01	9.142854e-06 1.354159e-05 -6.145780e-03
0.29375       	-1.348747e-05 -2.227119e-05 5.086408e-01	-2.253484e-05 -3.569295e-05 5.148122e-01	9.047373e-06 1.342176e-05 -6.171415e-03
0.296875      	-1.407707e-05 -2.167323e-05 5.111328e-01	-2.305445e-05 -3.499590e-05 5.173275e-01	8.977378e-06 1.332267e-05 -6.194664e-03
0.3           	-1.438207e-05 -2.289121e-05 5.134225e-01	-2.329135e-05 -3.608507e-05 5.196378e-01	8.909284e-06 1.319386e-05 -6.215311e-03
0.303125      	-1.431289e-05 -2.156490e-05 5.157729e-01	-2.312731e-05 -3.463326e-05 5.220063e-01	8.814424e-06 1.306836e-05 -6.233314e-03
0.30625       	-1.459393e-05 -2.158695e-05 5.180944e-01	-2.335699e-05 -3.457016e-05 5.243432e-01	8.763057e-06 1.298321e-05 -6.248813e-03
0.309375      	-1.488527e-05 -2.095930e-05 5.201726e-01	-2.355671e-05 -3.383145e-05 5.264344e-01	8.671437e-06 1.287215e-05 -6.261843e-03
0.3125        	-1.425765e-05 -2.095281e-05 5.223905e-01	-2.285564e-05 -3.372774e-05 5.286630e-01	8.597992e-06 1.277493e-05 -6.272486e-03
0.315625      	-1.431319e-05 -2.127815e-05 5.245715e-01	-2.286494e-05 -3.396430e-05 5.308519e-01	8.551747e-06 1.268615e-05 -6.280437e-03
0.31875       	-1.485072e-05 -2.098680e-05 5.267079e-01	-2.332551e-05 -3.357396e-05 5.329936e-01	8.474800e-06 1.258715e-05 -6.285673e-03
0.321875      	-1.488233e-05 -2.081401e-05 5.289551e-01	-2.327914e-05 -3.331028e-05 5.352436e-01	8.396806e-06 1.249627e-05 -6.288532e-03
0.325         	-1.571161e-05 -2.110479e-05 5.310815e-01	-2.403591e-05 -3.351762e-05 5.373706e-01	8.324302e-06 1.241283e-05 -6.289084e-03
0.328125      	-1.471107e-05 -1.897163e-05 5.331409e-01	-2.297793e-05 -3.130411e-05 5.394283e-01	8.266863e-06 1.233248e-05 -6.287356e-03
0.33125       	-1.618396e-05 -2.002736e-05 5.352890e-01	-2.441452e-05 -3.227808e-05 5.415725e-01	8.230556e-06 1.225071e-05 -6.283494e-03
0.334375      	-1.517457e-05 -1.964506e-05 5.374004e-01	-2.337049e-05 -3.180733e-05 5.436779e-01	8.195925e-06 1.216227e-05 -6.277544e-03
0.3375        	-1.517291e-05 -1.880986e-05 5.394860e-01	-2.333206e-05 -3.089485e-05 5.457556e-01	8.159152e-06 1.208499e-05 -6.269607e-03
0.340625      	-1.556137e-05 -1.919190e-05 5.415303e-01	-2.368507e-05 -3.119734e-05 5.477901e-01	8.123705e-06 1.200545e-05 -6.259818e-03
0.34375       	-1.504282e-05 -1.901986e-05 5.437256e-01	-2.312231e-05 -3.093121e-05 5.499734e-01	8.079490e-06 1.191135e-05 -6.247782e-03
0.346875      	-1.540665e-05 -1.874013e-05 5.457414e-01	-2.342380e-05 -3.056046e-05 5.519749e-01	8.017150e-06 1.182033e-05 -6.233497e-03
0.35          	-1.565697e-05 -1.841705e-05 5.479960e-01	-2.360503e-05 -3.015946e-05 5.542135e-01	7.948060e-06 1.174242e-05 -6.217508e-03
0.353125      	-1.535990e-05 -1.861218e-05 5.502364e-01	-2.323857e-05 -3.026382e-05 5.564363e-01	7.878670e-06 1.165164e-05 -6.199830e-03
0.35625       	-1.553598e-05 -1.760080e-05 5.522617e-01	-2.333868e-05 -2.916662e-05 5.584420e-01	7.802703e-06 1.156583e-05 -6.180342e-03
0.359375      	-1.539421e-05 -1.767657e-05 5.545167e-01	-2.312288e-05 -2.916183e-05 5.606759e-01	7.728672e-06 1.148526e-05 -6.159149e-03
0.3625        	-1.568813e-05 -1.790679e-05 5.564127e-01	-2.334007e-05 -2.930039e-05 5.625493e-01	7.651944e-06 1.139360e-05 -6.136590e-03
0.365625      	-1.512576e-05 -1.672864e-05 5.584719e-01	-2.269882e-05 -2.803575e-05 5.645846e-01	7.573060e-06 1.130711e-05 -6.112684e-03
0.36875       	-1.531227e-05 -1.662135e-05 5.604831e-01	-2.280919e-05 -2.784666e-05 5.665704e-01	7.496914e-06 1.122530e-05 -6.087249e-03
0.371875      	-1.630853e-05 -1.737156e-05 5.623703e-01	-2.371116e-05 -2.850228e-05 5.684308e-01	7.402625e-06 1.113072e-05 -6.060446e-03
0.375         	-1.603726e-05 -1.675989e-05 5.643559e-01	-2.334137e-05 -2.779424e-05 5.703883e-01	7.304114e-06 1.103435e-05 -6.032344e-03
0.378125      	-1.562713e-05 -1.649344e-05 5.662937e-01	-2.284281e-05 -2.743280e-05 5.722966e-01	7.215678e-06 1.093936e-05 -6.002859e-03
0.38125       	-1.582055e-05 -1.624731e-05 5.682657e-01	-2.295091e-05 -2.709317e-05 5.742379e-01	7.130356e-06 1.084586e-05 -5.972154e-03
0.384375      	-1.606808e-05 -1.580975e-05 5.700228e-01	-2.311291e-05 -2.656421e-05 5.759634e-01	7.044825e-06 1.075446e-05 -5.940566e-03
0.3875        	-1.578441e-05 -1.557346e-05 5.720528e-01	-2.274766e-05 -2.623549e-05 5.779605e-01	6.963257e-06 1.066203e-05 -5.907658e-03
0.390625      	-1.609564e-05 -1.592488e-05 5.738335e-01	-2.297124e-05 -2.648952e-05 5.797071e-01	6.875601e-06 1.056465e-05 -5.873567e-03
0.39375       	-1.612750e-05 -1.499254e-05 5.756653e-01	-2.290547e-05 -2.547099e-05 5.815039e-01	6.777963e-06 1.047846e-05 -5.838611e-03
0.396875      	-1.609634e-05 -1.491277e-05 5.773726e-01	-2.278637e-05 -2.530632e-05 5.831755e-01	6.690037e-06 1.039354e-05 -5.802888e-03
0.4           	-1.602598e-05 -1.476474e-05 5.791749e-01	-2.263495e-05 -2.506735e-05 5.849409e-01	6.608977e-06 1.030261e-05 -5.766019e-03
0.403125      	-1.609758e-05 -1.476434e-05 5.811767e-01	-2.262438e-05 -2.497265e-05 5.869046e-01	6.526794e-06 1.020832e-05 -5.727883e-03
0.40625       	-1.624999e-05 -1.449351e-05 5.828604e-01	-2.269126e-05 -2.460935e-05 5.885491e-01	6.441269e-06 1.011584e-05 -5.688755e-03
0.409375      	-1.593429e-05 -1.378494e-05 5.847754e-01	-2.229408e-05 -2.381302e-05 5.904245e-01	6.359794e-06 1.002808e-05 -5.649098e-03
0.4125        	-1.563370e-05 -1.373562e-05 5.865146e-01	-2.191124e-05 -2.367657e-05 5.921232e-01	6.277548e-06 9.940951e-06 -5.608690e-03
0.415625      	-1.595523e-05 -1.404874e-05 5.883814e-01	-2.213584e-05 -2.389517e-05 5.939489e-01	6.180613e-06 9.846427e-06 -5.567538e-03
0.41875       	-1.603011e-05 -1.384047e-05 5.901196e-01	-2.212048e-05 -2.359796e-05 5.956456e-01	6.090371e-06 9.757486e-06 -5.526021e-03
0.421875      	-1.606419e-05 -1.304563e-05 5.917492e-01	-2.206550e-05 -2.272112e-05 5.972333e-01	6.001305e-06 9.675484e-06 -5.484160e-03
0.425         	-1.558076e-05 -1.275718e-05 5.935537e-01	-2.148736e-05 -2.235860e-05 5.989955e-01	5.906599e-06 9.601416e-06 -5.441786e-03
0.428125      	-1.608955e-05 -1.256051e-05 5.951677e-01	-2.190272e-05 -2.208937e-05 6.005666e-01	5.813165e-06 9.528864e-06 -5.398928e-03
0.43125       	-1.609274e-05 -1.255447e-05 5.967774e-01	-2.182699e-05 -2.200948e-05 6.021333e-01	5.734254e-06 9.455011e-06 -5.355855e-03
0.434375      	-1.581797e-05 -1.229453e-05 5.984083e-01	-2.147821e-05 -2.168096e-05 6.037207e-01	5.660239e-06 9.386426e-06 -5.312461e-03
0.4375        	-1.618568e-05 -1.224567e-05 6.000116e-01	-2.176371e-05 -2.155110e-05 6.052802e-01	5.578028e-06 9.305428e-06 -5.268617e-03
0.440625      	-1.580881e-05 -1.123524e-05 6.015628e-01	-2.129030e-05 -2.046663e-05 6.067874e-01	5.481491e-06 9.231394e-06 -5.224587e-03
0.44375       	-1.538942e-05 -1.155348e-05 6.030183e-01	-2.078029e-05 -2.070963e-05 6.081986e-01	5.390872e-06 9.156148e-06 -5.180337e-03
0.446875      	-1.606372e-05 -1.201129e-05 6.046130e-01	-2.136105e-05 -2.107588e-05 6.097486e-01	5.297328e-06 9.064587e-06 -5.135589e-03
0.45          	-1.576947e-05 -1.132046e-05 6.061624e-01	-2.097411e-05 -2.030481e-05 6.112529e-01	5.204639e-06 8.984355e-06 -5.090488e-03
0.453125      	-1.581859e-05 -1.136619e-05 6.075297e-01	-2.090962e-05 -2.026957e-05 6.125751e-01	5.091036e-06 8.903377e-06 -5.045365e-03
0.45625       	-1.542498e-05 -1.079893e-05 6.090695e-01	-2.042144e-05 -1.963987e-05 6.140696e-01	4.996455e-06 8.840937e-06 -5.000129e-03
0.459375      	-1.558792e-05 -1.114998e-05 6.104197e-01	-2.050374e-05 -1.992273e-05 6.153744e-01	4.915823e-06 8.772746e-06 -4.954687e-03
0.4625        	-1.575356e-05 -1.039497e-05 6.118351e-01	-2.058399e-05 -1.910385e-05 6.167444e-01	4.830423e-06 8.708877e-06 -4.909332e-03
0.465625      	-1.534403e-05 -1.015772e-05 6.131126e-01	-2.009658e-05 -1.881340e-05 6.179767e-01	4.752550e-06 8.655685e-06 -4.864070e-03
0.46875       	-1.539422e-05 -1.012196e-05 6.145427e-01	-2.007340e-05 -1.871994e-05 6.193617e-01	4.679180e-06 8.597988e-06 -4.819009e-03
0.471875      	-1.575400e-05 -9.924274e-06 6.159446e-01	-2.035307e-05 -1.846478e-05 6.207185e-01	4.599070e-06 8.540506e-06 -4.773909e-03
0.475         	-1.484996e-05 -1.027881e-05 6.173099e-01	-1.939008e-05 -1.875858e-05 6.220388e-01	4.540127e-06 8.479771e-06 -4.728913e-03
0.478125      	-1.562009e-05 -9.771136e-06 6.186819e-01	-2.008874e-05 -1.819707e-05 6.233660e-01	4.468651e-06 8.425939e-06 -4.684175e-03
0.48125       	-1.533462e-05 -9.350978e-06 6.198411e-01	-1.972781e-05 -1.772867e-05 6.244809e-01	4.393187e-06 8.377693e-06 -4.639753e-03
0.484375      	-1.512415e-05 -9.805518e-06 6.211594e-01	-1.944933e-05 -1.812336e-05 6.257551e-01	4.325183e-06 8.317841e-06 -4.595668e-03
0.4875        	-1.522399e-05 -9.270296e-06 6.224565e-01	-1.948172e-05 -1.753324e-05 6.270082e-01	4.257734e-06 8.262947e-06 -4.551650e-03
0.490625      	-1.497803e-05 -8.577880e-06 6.236880e-01	-1.917118e-05 -1.680370e-05 6.281958e-01	4.193144e-06 8.225822e-06 -4.507803e-03
0.49375       	-1.558969e-05 -9.435796e-06 6.248858e-01	-1.970723e-05 -1.761443e-05 6.293502e-01	4.117537e-06 8.178636e-06 -4.464414e-03
0.496875      	-1.525988e-05 -9.101675e-06 6.260996e-01	-1.930641e-05 -1.723194e-05 6.305209e-01	4.046538e-06 8.130263e-06 -4.421254e-03
0.5           	-1.497182e-05 -8.996584e-06 6.272000e-01	-1.895843e-05 -1.708395e-05 6.315784e-01	3.986608e-06 8.087370e-06 -4.378428e-03
0.503125      	-1.488479e-05 -8.586814e-06 6.283395e-01	-1.881371e-05 -1.663871e-05 6.326754e-01	3.928917e-06 8.051897e-06 -4.335896e-03
0.50625       	-1.513637e-05 -8.907164e-06 6.293871e-01	-1.900157e-05 -1.691928e-05 6.336808e-01	3.865205e-06 8.012118e-06 -4.293713e-03
0.509375      	-1.495581e-05 -8.410664e-06 6.304819e-01	-1.876215e-05 -1.638827e-05 6.347338e-01	3.806333e-06 7.977609e-06 -4.251857e-03
0.5125        	-1.507753e-05 -8.797702e-06 6.315902e-01	-1.882702e-05 -1.673453e-05 6.358005e-01	3.749488e-06 7.936824e-06 -4.210303e-03
0.515625      	-1.497763e-05 -8.185948e-06 6.326618e-01	-1.866880e-05 -1.608955e-05 6.368310e-01	3.691164e-06 7.903603e-06 -4.169118e-03
0.51875       	-1.499868e-05 -8.303662e-06 6.336619e-01	-1.863515e-05 -1.617589e-05 6.377903e-01	3.636471e-06 7.872227e-06 -4.128452e-03
0.521875      	-1.500803e-05 -7.909138e-06 6.346385e-01	-1.859107e-05 -1.575799e-05 6.387268e-01	3.583038e-06 7.848851e-06 -4.088370e-03
0.525         	-1.463362e-05 -7.999716e-06 6.355836e-01	-1.817017e-05 -1.582295e-05 6.396324e-01	3.536552e-06 7.823235e-06 -4.048769e-03
0.528125      	-1.483311e-05 -8.485936e-06 6.364570e-01	-1.831998e-05 -1.626844e-05 6.404667e-01	3.486869e-06 7.782508e-06 -4.009679e-03
0.53125       	-1.485015e-05 -7.716537e-06 6.374156e-01	-1.828160e-05 -1.547124e-05 6.413866e-01	3.431451e-06 7.754701e-06 -3.970978e-03
0.534375      	-1.480333e-05 -7.849651e-06 6.383157e-01	-1.818215e-05 -1.558247e-05 6.422485e-01	3.378821e-06 7.732814e-06 -3.932760e-03
0.5375        	-1.471301e-05 -8.040379e-06 6.392031e-01	-1.804117e-05 -1.574191e-05 6.430983e-01	3.328160e-06 7.701536e-06 -3.895190e-03
0.540625      	-1.452121e-05 -8.115798e-06 6.401250e-01	-1.779718e-05 -1.577682e-05 6.439831e-01	3.275970e-06 7.661020e-06 -3.858100e-03
0.54375       	-1.450217e-05 -7.275341e-06 6.409878e-01	-1.772517e-05 -1.490545e-05 6.448094e-01	3.223003e-06 7.630114e-06 -3.821582e-03
0.546875      	-1.484897e-05 -7.987030e-06 6.418642e-01	-1.801618e-05 -1.558568e-05 6.456498e-01	3.167217e-06 7.598652e-06 -3.785575e-03
0.55          	-1.479630e-05 -7.609369e-06 6.426915e-01	-1.790326e-05 -1.518253e-05 6.464416e-01	3.106961e-06 7.573165e-06 -3.750076e-03
0.553125      	-1.461026e-05 -7.519606e-06 6.433950e-01	-1.765167e-05 -1.505215e-05 6.471103e-01	3.041407e-06 7.532548e-06 -3.715291e-03
0.55625       	-1.487794e-05 -7.568447e-06 6.443142e-01	-1.786327e-05 -1.506284e-05 6.479952e-01	2.985331e-06 7.494392e-06 -3.681017e-03
0.559375      	-1.426880e-05 -7.943780e-06 6.450555e-01	-1.720900e-05 -1.541329e-05 6.487028e-01	2.940193e-06 7.469509e-06 -3.647315e-03
0.5625        	-1.446578e-05 -7.235737e-06 6.457951e-01	-1.735574e-05 -1.468817e-05 6.494093e-01	2.889955e-06 7.452436e-06 -3.614274e-03
0.565625      	-1.451177e-05 -6.852475e-06 6.465562e-01	-1.734781e-05 -1.427891e-05 6.501381e-01	2.836037e-06 7.426435e-06 -3.581834e-03
0.56875       	-1.465187e-05 -7.208570e-06 6.473128e-01	-1.743847e-05 -1.461050e-05 6.508627e-01	2.786599e-06 7.401930e-06 -3.549903e-03
0.571875      	-1.432529e-05 -7.820507e-06 6.480686e-01	-1.707271e-05 -1.520945e-05 6.515870e-01	2.747422e-06 7.388938e-06 -3.518455e-03
0.575         	-1.437541e-05 -7.667940e-06 6.487584e-01	-1.707976e-05 -1.504336e-05 6.522459e-01	2.704352e-06 7.375423e-06 -3.487556e-03
0.578125      	-1.443069e-05 -7.087954e-06 6.493942e-01	-1.708730e-05 -1.445546e-05 6.528515e-01	2.656611e-06 7.367505e-06 -3.457263e-03
0.58125       	-1.449837e-05 -7.445532e-06 6.500943e-01	-1.710831e-05 -1.479590e-05 6.535219e-01	2.609944e-06 7.350373e-06 -3.427589e-03
0.584375      	-1.453258e-05 -6.968693e-06 6.507517e-01	-1.709710e-05 -1.431221e-05 6.541503e-01	2.564515e-06 7.343522e-06 -3.398537e-03
0.5875        	-1.445310e-05 -7.363468e-06 6.513710e-01	-1.697545e-05 -1.469524e-05 6.547410e-01	2.522347e-06 7.331774e-06 -3.369967e-03
0.590625      	-1.449712e-05 -7.367331e-06 6.519724e-01	-1.697592e-05 -1.468310e-05 6.553144e-01	2.478799e-06 7.315769e-06 -3.342031e-03
0.59375       	-1.439324e-05 -7.327426e-06 6.525772e-01	-1.683039e-05 -1.462913e-05 6.558918e-01	2.437158e-06 7.301701e-06 -3.314651e-03
0.596875      	-1.414429e-05 -7.437203e-06 6.532372e-01	-1.654644e-05 -1.472622e-05 6.565250e-01	2.402148e-06 7.289022e-06 -3.287838e-03
0.6           	-1.462173e-05 -7.365827e-06 6.537360e-01	-1.697885e-05 -1.464237e-05 6.569976e-01	2.357123e-06 7.276539e-06 -3.261584e-03
0.603125      	-1.379799e-05 -6.972886e-06 6.542777e-01	-1.612550e-05 -1.424748e-05 6.575136e-01	2.327509e-06 7.274599e-06 -3.235832e-03
0.60625       	-1.437570e-05 -7.328153e-06 6.549159e-01	-1.666806e-05 -1.459390e-05 6.581264e-01	2.292353e-06 7.265745e-06 -3.210502e-03
0.609375      	-1.442214e-05 -7.159403e-06 6.553342e-01	-1.666941e-05 -1.441418e-05 6.585200e-01	2.247268e-06 7.254774e-06 -3.185830e-03
0.6125        	-1.414697e-05 -7.157127e-06 6.558099e-01	-1.635856e-05 -1.440436e-05 6.589717e-01	2.211586e-06 7.247237e-06 -3.161770e-03
0.615625      	-1.459343e-05 -7.320316e-06 6.564076e-01	-1.676336e-05 -1.455588e-05 6.595458e-01	2.169936e-06 7.235563e-06 -3.138186e-03
0.61875       	-1.424292e-05 -7.519576e-06 6.569670e-01	-1.637469e-05 -1.473670e-05 6.600821e-01	2.131772e-06 7.217121e-06 -3.115050e-03
0.621875      	-1.419267e-05 -7.230080e-06 6.573324e-01	-1.629121e-05 -1.443531e-05 6.604250e-01	2.098533e-06 7.205232e-06 -3.092570e-03
0.625         	-1.422394e-05 -7.558442e-06 6.579073e-01	-1.628900e-05 -1.474830e-05 6.609779e-01	2.065070e-06 7.189855e-06 -3.070619e-03
0.628125      	-1.460262e-05 -7.339779e-06 6.583125e-01	-1.662748e-05 -1.451562e-05 6.613616e-01	2.024860e-06 7.175844e-06 -3.049107e-03
0.63125       	-1.414628e-05 -7.612180e-06 6.588659e-01	-1.613858e-05 -1.477205e-05 6.618940e-01	1.992303e-06 7.159869e-06 -3.028055e-03
0.634375      	-1.395501e-05 -7.314070e-06 6.593017e-01	-1.592228e-05 -1.446243e-05 6.623093e-01	1.967267e-06 7.148357e-06 -3.007578e-03
0.6375        	-1.443607e-05 -7.361785e-06 6.596663e-01	-1.636916e-05 -1.450194e-05 6.626540e-01	1.933090e-06 7.140150e-06 -2.987676e-03
0.640625      	-1.395417e-05 -6.871407e-06 6.601552e-01	-1.585990e-05 -1.401077e-05 6.631235e-01	1.905738e-06 7.139359e-06 -2.968314e-03
0.64375       	-1.411786e-05 -7.642605e-06 6.606358e-01	-1.599617e-05 -1.476985e-05 6.635852e-01	1.878304e-06 7.127249e-06 -2.949442e-03
0.646875      	-1.410795e-05 -6.893791e-06 6.610948e-01	-1.595643e-05 -1.401740e-05 6.640257e-01	1.848481e-06 7.123614e-06 -2.930945e-03
0.65          	-1.415875e-05 -7.462298e-06 6.615443e-01	-1.597903e-05 -1.457739e-05 6.644572e-01	1.820272e-06 7.115091e-06 -2.912849e-03
0.653125      	-1.400165e-05 -7.240078e-06 6.618952e-01	-1.579416e-05 -1.434629e-05 6.647904e-01	1.792510e-06 7.106211e-06 -2.895207e-03
0.65625       	-1.387891e-05 -7.418355e-06 6.623396e-01	-1.564702e-05 -1.451672e-05 6.652177e-01	1.768107e-06 7.098364e-06 -2.878091e-03
0.659375      	-1.402454e-05 -7.193981e-06 6.626790e-01	-1.576598e-05 -1.428540e-05 6.655404e-01	1.741440e-06 7.091423e-06 -2.861419e-03
0.6625        	-1.397883e-05 -7.266584e-06 6.631631e-01	-1.569334e-05 -1.435087e-05 6.660081e-01	1.714516e-06 7.084289e-06 -2.845057e-03
0.665625      	-1.385002e-05 -7.259025e-06 6.634997e-01	-1.553937e-05 -1.433740e-05 6.663288e-01	1.689352e-06 7.078377e-06 -2.829075e-03
0.66875       	-1.409685e-05 -7.286778e-06 6.638773e-01	-1.575727e-05 -1.435868e-05 6.666908e-01	1.660421e-06 7.071900e-06 -2.813551e-03
0.671875      	-1.386387e-05 -7.045360e-06 6.642238e-01	-1.549749e-05 -1.411501e-05 6.670223e-01	1.633615e-06 7.069652e-06 -2.798473e-03
0.675         	-1.401957e-05 -7.034263e-06 6.645862e-01	-1.562650e-05 -1.410479e-05 6.673700e-01	1.606925e-06 7.070526e-06 -2.783843e-03
0.678125      	-1.380182e-05 -7.123072e-06 6.649507e-01	-1.538471e-05 -1.419103e-05 6.677203e-01	1.582892e-06 7.067956e-06 -2.769646e-03
0.68125       	-1.371814e-05 -7.049081e-06 6.652761e-01	-1.528018e-05 -1.411353e-05 6.680319e-01	1.562043e-06 7.064447e-06 -2.755785e-03