# Moment      
# CofR        : (0.000000e+00 0.000000e+00 0.000000e+00)
#
# Time        	(total_x total_y total_z)	(pressure_x pressure_y pressure_z)	(viscous_x viscous_y viscous_z)
0.003125      	(-5.640462e-05 1.024289e-04 -4.356793e-08)	(-5.138948e-05 1.078068e-04 -3.848662e-10)	(-5.015139e-06 -5.377829e-06 -4.318306e-08)
0.00625       	(-3.797817e-05 -1.168216e-05 -5.200235e-08)	(-2.866642e-05 -2.413577e-06 3.123422e-09)	(-9.311751e-06 -9.268584e-06 -5.512577e-08)
0.009375      	(-7.350216e-06 -6.561120e-05 -4.214460e-08)	(8.500578e-07 -5.419367e-05 2.085770e-09)	(-8.200274e-06 -1.141754e-05 -4.423037e-08)
0.0125        	(-2.636413e-05 -1.104369e-05 -2.934622e-08)	(-2.090149e-05 2.224797e-06 1.336505e-09)	(-5.462641e-06 -1.326849e-05 -3.068272e-08)
0.015625      	(-2.984144e-05 -1.471843e-05 -1.877008e-08)	(-2.645943e-05 -6.240153e-07 1.010128e-09)	(-3.382004e-06 -1.409441e-05 -1.978021e-08)
0.01875       	(-2.353889e-05 -2.059207e-05 -1.150132e-08)	(-2.180772e-05 -6.424131e-06 8.717040e-10)	(-1.731169e-06 -1.416794e-05 -1.237302e-08)
0.021875      	(-1.568856e-05 -2.356588e-05 -7.099728e-09)	(-1.523256e-05 -9.446420e-06 8.054114e-10)	(-4.560021e-07 -1.411946e-05 -7.905139e-09)
0.025         	(-1.841526e-05 -1.787447e-05 -4.626325e-09)	(-1.901789e-05 -3.943757e-06 7.684306e-10)	(6.026349e-07 -1.393071e-05 -5.394756e-09)
0.028125      	(-2.128023e-05 -1.455704e-05 -3.581230e-09)	(-2.280582e-05 -8.356910e-07 6.997345e-10)	(1.525587e-06 -1.372135e-05 -4.280965e-09)
0.03125       	(-9.177762e-07 -2.677588e-05 -2.450424e-09)	(-3.369868e-06 -1.313718e-05 6.741654e-10)	(2.452092e-06 -1.363870e-05 -3.124590e-09)
0.034375      	(-1.718621e-05 -1.437588e-05 -1.243139e-09)	(-2.014552e-05 -1.025239e-06 6.615109e-10)	(2.959307e-06 -1.335064e-05 -1.904650e-09)
0.0375        	(-1.124016e-05 -1.694265e-05 -4.290375e-10)	(-1.454317e-05 -3.936722e-06 6.341967e-10)	(3.303012e-06 -1.300593e-05 -1.063234e-09)
0.040625      	(-9.371972e-06 -1.820377e-05 -2.776696e-10)	(-1.298657e-05 -5.500720e-06 5.992225e-10)	(3.614594e-06 -1.270305e-05 -8.768921e-10)
0.04375       	(-5.699133e-06 -1.978859e-05 -2.557149e-10)	(-9.577195e-06 -7.323187e-06 5.956469e-10)	(3.878062e-06 -1.246540e-05 -8.513618e-10)
0.046875      	(-1.063235e-05 -1.406720e-05 -1.273477e-10)	(-1.463481e-05 -1.897790e-06 5.892217e-10)	(4.002467e-06 -1.216941e-05 -7.165694e-10)
0.05          	(-8.837033e-06 -1.468427e-05 4.996347e-10)	(-1.293276e-05 -2.794780e-06 5.809486e-10)	(4.095729e-06 -1.188950e-05 -8.131391e-11)
0.053125      	(-8.756559e-06 -1.438504e-05 9.809017e-10)	(-1.293607e-05 -2.737070e-06 5.653527e-10)	(4.179510e-06 -1.164797e-05 4.155490e-10)
0.05625       	(-9.018684e-06 -1.332190e-05 1.113260e-09)	(-1.324028e-05 -1.915177e-06 5.644972e-10)	(4.221600e-06 -1.140673e-05 5.487627e-10)
0.059375      	(-8.880913e-06 -1.278494e-05 1.155776e-09)	(-1.313966e-05 -1.598644e-06 5.523787e-10)	(4.258746e-06 -1.118629e-05 6.033974e-10)
0.0625        	(-8.273712e-06 -1.243177e-05 1.633495e-09)	(-1.256922e-05 -1.432780e-06 5.453709e-10)	(4.295503e-06 -1.099899e-05 1.088124e-09)
0.065625      	(-7.716287e-06 -1.156288e-05 2.327236e-09)	(-1.203601e-05 -7.431553e-07 5.371991e-10)	(4.319726e-06 -1.081973e-05 1.790037e-09)
0.06875       	(-8.397069e-06 -1.169351e-05 2.384435e-09)	(-1.273782e-05 -1.046057e-06 5.321289e-10)	(4.340749e-06 -1.064746e-05 1.852306e-09)
0.071875      	(-8.049784e-06 -1.112674e-05 2.120493e-09)	(-1.240973e-05 -6.391543e-07 5.215893e-10)	(4.359946e-06 -1.048758e-05 1.598904e-09)
0.075         	(-7.898088e-06 -1.096774e-05 2.678623e-09)	(-1.227307e-05 -6.356307e-07 5.074729e-10)	(4.374979e-06 -1.033211e-05 2.171151e-09)
0.078125      	(-7.836958e-06 -1.056476e-05 3.053684e-09)	(-1.221690e-05 -3.823476e-07 4.933115e-10)	(4.379945e-06 -1.018241e-05 2.560373e-09)
0.08125       	(-8.968252e-06 -1.000943e-05 3.225054e-09)	(-1.334936e-05 3.310869e-08 4.891929e-10)	(4.381111e-06 -1.004254e-05 2.735861e-09)
0.084375      	(-6.632688e-06 -1.044701e-05 3.466670e-09)	(-1.100666e-05 -5.444674e-07 4.870774e-10)	(4.373972e-06 -9.902547e-06 2.979593e-09)
0.0875        	(-5.521648e-06 -1.063111e-05 3.955791e-09)	(-9.846823e-06 -8.786446e-07 4.628091e-10)	(4.325175e-06 -9.752467e-06 3.492982e-09)
0.090625      	(-6.536370e-06 -9.447172e-06 3.974889e-09)	(-1.079686e-05 1.612094e-07 4.511544e-10)	(4.260489e-06 -9.608381e-06 3.523734e-09)
0.09375       	(-7.206506e-06 -9.091480e-06 3.750432e-09)	(-1.146949e-05 4.070219e-07 4.900629e-10)	(4.262985e-06 -9.498502e-06 3.260369e-09)
0.096875      	(-7.152890e-06 -9.415089e-06 3.978083e-09)	(-1.146968e-05 -9.458730e-09 4.976048e-10)	(4.316785e-06 -9.405630e-06 3.480478e-09)
0.1           	(-5.559255e-06 -9.104444e-06 4.638683e-09)	(-9.908824e-06 2.072611e-07 4.687805e-10)	(4.349569e-06 -9.311705e-06 4.169903e-09)
0.103125      	(-6.462548e-06 -8.961926e-06 5.097019e-09)	(-1.084205e-05 2.661895e-07 4.519241e-10)	(4.379503e-06 -9.228115e-06 4.645095e-09)
0.10625       	(-5.758137e-06 -9.040553e-06 5.299865e-09)	(-1.018203e-05 1.117429e-07 4.417656e-10)	(4.423896e-06 -9.152295e-06 4.858099e-09)
0.109375      	(-5.619989e-06 -9.083374e-06 5.315413e-09)	(-1.007771e-05 -7.037004e-09 4.349397e-10)	(4.457721e-06 -9.076337e-06 4.880474e-09)
0.1125        	(-4.567005e-06 -9.323662e-06 5.313015e-09)	(-9.051363e-06 -3.213142e-07 4.259840e-10)	(4.484358e-06 -9.002347e-06 4.887031e-09)
0.115625      	(-4.498296e-06 -9.334224e-06 5.607781e-09)	(-8.999941e-06 -4.059668e-07 4.184949e-10)	(4.501646e-06 -8.928257e-06 5.189286e-09)
0.11875       	(-4.028880e-06 -9.692221e-06 6.049992e-09)	(-8.533797e-06 -8.332690e-07 4.146538e-10)	(4.504917e-06 -8.858952e-06 5.635338e-09)
0.121875      	(-4.007999e-06 -9.541620e-06 6.329247e-09)	(-8.512329e-06 -7.505318e-07 4.068404e-10)	(4.504330e-06 -8.791088e-06 5.922406e-09)
0.125         	(-3.581785e-06 -9.288668e-06 6.342862e-09)	(-8.081040e-06 -5.666721e-07 3.996362e-10)	(4.499255e-06 -8.721996e-06 5.943226e-09)
0.128125      	(-3.001048e-06 -9.904848e-06 6.442533e-09)	(-7.490823e-06 -1.251609e-06 3.941402e-10)	(4.489775e-06 -8.653239e-06 6.048393e-09)
0.13125       	(-2.320701e-06 -1.013169e-05 6.563596e-09)	(-6.797266e-06 -1.545022e-06 3.888560e-10)	(4.476565e-06 -8.586666e-06 6.174740e-09)
0.134375      	(-2.710006e-06 -1.009851e-05 6.643622e-09)	(-7.167002e-06 -1.576805e-06 3.853580e-10)	(4.456996e-06 -8.521705e-06 6.258264e-09)
0.1375        	(-3.109045e-06 -9.784457e-06 6.706016e-09)	(-7.540263e-06 -1.332092e-06 3.771416e-10)	(4.431218e-06 -8.452365e-06 6.328874e-09)
0.140625      	(-1.749923e-06 -1.020184e-05 6.844465e-09)	(-6.153067e-06 -1.819791e-06 3.713889e-10)	(4.403144e-06 -8.382053e-06 6.473076e-09)
0.14375       	(-2.071505e-06 -1.024054e-05 6.970588e-09)	(-6.446618e-06 -1.927251e-06 3.652714e-10)	(4.375113e-06 -8.313284e-06 6.605316e-09)
0.146875      	(-1.754701e-06 -1.035400e-05 7.061115e-09)	(-6.101410e-06 -2.106685e-06 3.607788e-10)	(4.346709e-06 -8.247316e-06 6.700336e-09)
0.15          	(-2.105340e-06 -1.042952e-05 7.096570e-09)	(-6.421669e-06 -2.248552e-06 3.548209e-10)	(4.316330e-06 -8.180972e-06 6.741749e-09)
0.153125      	(-8.493599e-07 -1.099068e-05 7.165349e-09)	(-5.131322e-06 -2.877904e-06 3.528025e-10)	(4.281962e-06 -8.112776e-06 6.812547e-09)
0.15625       	(-1.302829e-06 -1.075116e-05 7.158423e-09)	(-5.545202e-06 -2.707890e-06 3.443015e-10)	(4.242373e-06 -8.043272e-06 6.814122e-09)
0.159375      	(-1.376036e-06 -1.061936e-05 6.969439e-09)	(-5.577742e-06 -2.645563e-06 3.398442e-10)	(4.201706e-06 -7.973794e-06 6.629595e-09)
0.1625        	(-9.694542e-07 -1.068488e-05 6.799547e-09)	(-5.132879e-06 -2.777748e-06 3.347645e-10)	(4.163425e-06 -7.907129e-06 6.464782e-09)
0.165625      	(-2.200321e-06 -1.072708e-05 6.733768e-09)	(-6.324856e-06 -2.880823e-06 3.280572e-10)	(4.124535e-06 -7.846254e-06 6.405711e-09)
0.16875       	(-1.526749e-06 -1.048344e-05 6.712778e-09)	(-5.611600e-06 -2.692603e-06 3.223547e-10)	(4.084851e-06 -7.790841e-06 6.390423e-09)
0.171875      	(-1.121689e-06 -1.001195e-05 6.703003e-09)	(-5.170328e-06 -2.269216e-06 3.195219e-10)	(4.048638e-06 -7.742731e-06 6.383481e-09)
0.175         	(-1.697960e-06 -1.047033e-05 6.699384e-09)	(-5.704535e-06 -2.769928e-06 3.132975e-10)	(4.006575e-06 -7.700407e-06 6.386087e-09)
0.178125      	(-1.148948e-06 -1.140528e-05 6.660959e-09)	(-5.112044e-06 -3.764598e-06 3.108060e-10)	(3.963096e-06 -7.640680e-06 6.350153e-09)
0.18125       	(-2.041087e-06 -1.198080e-05 6.416602e-09)	(-5.961057e-06 -4.405413e-06 3.085642e-10)	(3.919970e-06 -7.575387e-06 6.108037e-09)
0.184375      	(-2.079545e-06 -1.210299e-05 6.353546e-09)	(-5.961319e-06 -4.602127e-06 2.980523e-10)	(3.881774e-06 -7.500866e-06 6.055494e-09)
0.1875        	(-2.307356e-06 -1.124693e-05 6.459787e-09)	(-6.142272e-06 -3.807709e-06 2.638056e-10)	(3.834916e-06 -7.439224e-06 6.195982e-09)
0.190625      	(-2.589452e-06 -1.145743e-05 6.494798e-09)	(-6.368371e-06 -4.063570e-06 2.754719e-10)	(3.778918e-06 -7.393861e-06 6.219326e-09)
0.19375       	(-2.020502e-06 -1.132608e-05 6.490017e-09)	(-5.752199e-06 -3.977452e-06 2.651264e-10)	(3.731697e-06 -7.348623e-06 6.224891e-09)
0.196875      	(-1.540596e-06 -1.123636e-05 6.601931e-09)	(-5.233265e-06 -3.936605e-06 2.839250e-10)	(3.692669e-06 -7.299757e-06 6.318006e-09)
0.2           	(-2.096430e-06 -1.070269e-05 6.581072e-09)	(-5.751825e-06 -3.451565e-06 2.715114e-10)	(3.655395e-06 -7.251126e-06 6.309560e-09)
0.203125      	(-2.199777e-06 -1.145766e-05 6.516777e-09)	(-5.817966e-06 -4.253074e-06 2.514558e-10)	(3.618189e-06 -7.204589e-06 6.265322e-09)
0.20625       	(-1.178782e-06 -1.188294e-05 6.322332e-09)	(-4.754339e-06 -4.728549e-06 2.751480e-10)	(3.575558e-06 -7.154395e-06 6.047184e-09)
0.209375      	(-4.140750e-06 -1.139488e-05 6.084720e-09)	(-7.691848e-06 -4.288695e-06 2.746867e-10)	(3.551098e-06 -7.106186e-06 5.810034e-09)
0.2125        	(-3.698581e-06 -1.215079e-05 5.972525e-09)	(-7.219803e-06 -5.095052e-06 2.647955e-10)	(3.521222e-06 -7.055738e-06 5.707729e-09)
0.215625      	(-3.696490e-06 -1.091318e-05 5.927382e-09)	(-7.162885e-06 -3.880542e-06 2.489086e-10)	(3.466396e-06 -7.032633e-06 5.678473e-09)
0.21875       	(-4.222374e-06 -1.097713e-05 5.892950e-09)	(-7.635282e-06 -3.974083e-06 2.399453e-10)	(3.412908e-06 -7.003048e-06 5.653005e-09)
0.221875      	(-3.979583e-06 -1.117167e-05 5.822698e-09)	(-7.339200e-06 -4.199603e-06 2.301925e-10)	(3.359617e-06 -6.972072e-06 5.592506e-09)
0.225         	(-4.837312e-06 -1.130547e-05 5.856178e-09)	(-8.147242e-06 -4.365370e-06 2.423199e-10)	(3.309930e-06 -6.940104e-06 5.613858e-09)
0.228125      	(-3.681720e-06 -1.147081e-05 5.866919e-09)	(-6.952589e-06 -4.576859e-06 2.289556e-10)	(3.270868e-06 -6.893954e-06 5.637964e-09)
0.23125       	(-4.139448e-06 -1.143428e-05 5.737022e-09)	(-7.368475e-06 -4.584466e-06 2.068115e-10)	(3.229027e-06 -6.849815e-06 5.530211e-09)
0.234375      	(-4.801809e-06 -1.158119e-05 5.557632e-09)	(-7.988947e-06 -4.769636e-06 2.099997e-10)	(3.187138e-06 -6.811552e-06 5.347632e-09)
0.2375        	(-4.719345e-06 -1.130316e-05 5.394066e-09)	(-7.864179e-06 -4.527617e-06 2.025692e-10)	(3.144834e-06 -6.775541e-06 5.191497e-09)
0.240625      	(-6.037580e-06 -1.097615e-05 5.313654e-09)	(-9.135037e-06 -4.236696e-06 1.881096e-10)	(3.097457e-06 -6.739453e-06 5.125545e-09)
0.24375       	(-5.625371e-06 -1.181124e-05 5.233410e-09)	(-8.682343e-06 -5.102314e-06 1.855306e-10)	(3.056972e-06 -6.708925e-06 5.047879e-09)
0.246875      	(-5.636216e-06 -1.159037e-05 5.180693e-09)	(-8.654349e-06 -4.908109e-06 1.716775e-10)	(3.018133e-06 -6.682261e-06 5.009016e-09)
0.25          	(-5.617124e-06 -1.163276e-05 5.206410e-09)	(-8.594650e-06 -4.983191e-06 1.807297e-10)	(2.977526e-06 -6.649572e-06 5.025680e-09)
0.253125      	(-5.576908e-06 -1.120242e-05 5.139616e-09)	(-8.508640e-06 -4.590718e-06 1.932249e-10)	(2.931733e-06 -6.611701e-06 4.946391e-09)
0.25625       	(-7.044628e-06 -1.161140e-05 4.973244e-09)	(-9.928593e-06 -5.035523e-06 1.755727e-10)	(2.883964e-06 -6.575876e-06 4.797671e-09)
0.259375      	(-7.038872e-06 -1.142874e-05 4.819692e-09)	(-9.880620e-06 -4.884614e-06 1.650449e-10)	(2.841748e-06 -6.544125e-06 4.654647e-09)
0.2625        	(-7.196235e-06 -1.158677e-05 4.683046e-09)	(-9.994785e-06 -5.073279e-06 1.635812e-10)	(2.798549e-06 -6.513495e-06 4.519465e-09)
0.265625      	(-7.710390e-06 -1.122384e-05 4.569493e-09)	(-1.046613e-05 -4.739875e-06 1.624662e-10)	(2.755738e-06 -6.483964e-06 4.407027e-09)
0.26875       	(-6.465090e-06 -1.199303e-05 4.473893e-09)	(-9.179726e-06 -5.537953e-06 1.579615e-10)	(2.714636e-06 -6.455073e-06 4.315931e-09)
0.271875      	(-9.219750e-06 -1.102398e-05 4.368582e-09)	(-1.189289e-05 -4.599949e-06 1.519833e-10)	(2.673144e-06 -6.424030e-06 4.216598e-09)
0.275         	(-7.785932e-06 -1.155503e-05 4.279493e-09)	(-1.041771e-05 -5.161147e-06 1.473471e-10)	(2.631780e-06 -6.393879e-06 4.132146e-09)
0.278125      	(-8.190884e-06 -1.140047e-05 4.177896e-09)	(-1.078213e-05 -5.037237e-06 1.405916e-10)	(2.591245e-06 -6.363231e-06 4.037304e-09)
0.28125       	(-8.373696e-06 -1.155205e-05 4.074253e-09)	(-1.092524e-05 -5.217894e-06 1.381520e-10)	(2.551542e-06 -6.334152e-06 3.936101e-09)
0.284375      	(-8.672126e-06 -1.175653e-05 3.930727e-09)	(-1.118363e-05 -5.450159e-06 1.368662e-10)	(2.511504e-06 -6.306368e-06 3.793861e-09)
0.2875        	(-9.293818e-06 -1.087898e-05 3.795626e-09)	(-1.176347e-05 -4.601780e-06 1.338412e-10)	(2.469651e-06 -6.277204e-06 3.661784e-09)
0.290625      	(-9.648306e-06 -1.135005e-05 3.703826e-09)	(-1.207622e-05 -5.102341e-06 1.346198e-10)	(2.427918e-06 -6.247707e-06 3.569206e-09)
0.29375       	(-9.516345e-06 -1.115145e-05 3.597471e-09)	(-1.190277e-05 -4.934266e-06 1.182018e-10)	(2.386424e-06 -6.217185e-06 3.479269e-09)
0.296875      	(-9.983292e-06 -1.143913e-05 3.505127e-09)	(-1.232823e-05 -5.254455e-06 1.127898e-10)	(2.344938e-06 -6.184670e-06 3.392337e-09)
0.3           	(-9.775369e-06 -1.119047e-05 3.401229e-09)	(-1.207693e-05 -5.038234e-06 1.080051e-10)	(2.301557e-06 -6.152235e-06 3.293224e-09)
0.303125      	(-1.079994e-05 -1.136827e-05 3.310543e-09)	(-1.305848e-05 -5.245390e-06 1.018121e-10)	(2.258549e-06 -6.122882e-06 3.208731e-09)
0.30625       	(-1.073185e-05 -1.115828e-05 3.190687e-09)	(-1.295270e-05 -5.067752e-06 9.660554e-11)	(2.220851e-06 -6.090525e-06 3.094082e-09)
0.309375      	(-1.094295e-05 -1.077310e-05 3.043102e-09)	(-1.312266e-05 -4.712396e-06 9.750322e-11)	(2.179711e-06 -6.060708e-06 2.945599e-09)
0.3125        	(-1.109242e-05 -1.149409e-05 2.873746e-09)	(-1.323206e-05 -5.456530e-06 8.884577e-11)	(2.139641e-06 -6.037556e-06 2.784900e-09)
0.315625      	(-1.094334e-05 -1.121593e-05 2.722486e-09)	(-1.304205e-05 -5.205060e-06 8.802653e-11)	(2.098710e-06 -6.010870e-06 2.634459e-09)
0.31875       	(-1.185812e-05 -1.117889e-05 2.606037e-09)	(-1.390981e-05 -5.196857e-06 8.612252e-11)	(2.051690e-06 -5.982029e-06 2.519914e-09)
0.321875      	(-1.098864e-05 -1.173472e-05 2.497332e-09)	(-1.299520e-05 -5.778975e-06 8.297865e-11)	(2.006552e-06 -5.955748e-06 2.414354e-09)
0.325         	(-1.183658e-05 -1.106771e-05 2.393973e-09)	(-1.379914e-05 -5.141146e-06 7.989646e-11)	(1.962557e-06 -5.926568e-06 2.314077e-09)
0.328125      	(-1.265960e-05 -1.132381e-05 2.286430e-09)	(-1.457439e-05 -5.428163e-06 7.030165e-11)	(1.914793e-06 -5.895651e-06 2.216129e-09)
0.33125       	(-1.209758e-05 -1.130771e-05 2.233050e-09)	(-1.396256e-05 -5.448841e-06 6.972721e-11)	(1.864978e-06 -5.858867e-06 2.163323e-09)
0.334375      	(-1.239630e-05 -1.139303e-05 2.141567e-09)	(-1.421145e-05 -5.571679e-06 6.467933e-11)	(1.815147e-06 -5.821352e-06 2.076888e-09)
0.3375        	(-1.307524e-05 -1.123945e-05 2.013960e-09)	(-1.483814e-05 -5.455480e-06 6.352282e-11)	(1.762901e-06 -5.783965e-06 1.950437e-09)
0.340625      	(-1.329423e-05 -1.132346e-05 1.840568e-09)	(-1.500236e-05 -5.578500e-06 5.741379e-11)	(1.708127e-06 -5.744961e-06 1.783154e-09)
0.34375       	(-1.327011e-05 -1.107222e-05 1.698327e-09)	(-1.492212e-05 -5.367102e-06 5.948133e-11)	(1.652008e-06 -5.705113e-06 1.638846e-09)
0.346875      	(-1.325269e-05 -1.114889e-05 1.556880e-09)	(-1.484836e-05 -5.482777e-06 5.336974e-11)	(1.595674e-06 -5.666116e-06 1.503510e-09)
0.35          	(-1.367360e-05 -1.154839e-05 1.425449e-09)	(-1.521371e-05 -5.920650e-06 4.896709e-11)	(1.540111e-06 -5.627738e-06 1.376482e-09)
0.353125      	(-1.379911e-05 -1.038621e-05 1.325467e-09)	(-1.528347e-05 -4.797333e-06 4.242317e-11)	(1.484364e-06 -5.588881e-06 1.283044e-09)
0.35625       	(-1.538649e-05 -1.082621e-05 1.239130e-09)	(-1.681346e-05 -5.275232e-06 4.012398e-11)	(1.426970e-06 -5.550977e-06 1.199006e-09)
0.359375      	(-1.377083e-05 -1.122848e-05 1.146612e-09)	(-1.514226e-05 -5.713250e-06 3.670902e-11)	(1.371431e-06 -5.515234e-06 1.109903e-09)
0.3625        	(-1.466582e-05 -1.080788e-05 1.036972e-09)	(-1.598161e-05 -5.328756e-06 3.530546e-11)	(1.315789e-06 -5.479123e-06 1.001666e-09)
0.365625      	(-1.461594e-05 -1.100106e-05 9.140841e-10)	(-1.587750e-05 -5.558205e-06 3.619963e-11)	(1.261557e-06 -5.442853e-06 8.778845e-10)
0.36875       	(-1.533187e-05 -1.061162e-05 7.769708e-10)	(-1.654042e-05 -5.202626e-06 3.312278e-11)	(1.208553e-06 -5.408995e-06 7.438480e-10)
0.371875      	(-1.474102e-05 -1.055347e-05 6.520717e-10)	(-1.589527e-05 -5.180431e-06 2.704797e-11)	(1.154246e-06 -5.373037e-06 6.250237e-10)
0.375         	(-1.584899e-05 -1.055522e-05 5.476263e-10)	(-1.694898e-05 -5.218301e-06 2.144823e-11)	(1.099997e-06 -5.336923e-06 5.261780e-10)
0.378125      	(-1.583559e-05 -1.040771e-05 4.604021e-10)	(-1.688259e-05 -5.105188e-06 1.988061e-11)	(1.046997e-06 -5.302521e-06 4.405215e-10)
0.38125       	(-1.528866e-05 -1.044792e-05 4.056388e-10)	(-1.628478e-05 -5.179082e-06 1.788251e-11)	(9.961186e-07 -5.268840e-06 3.877562e-10)
0.384375      	(-1.640758e-05 -1.013049e-05 3.529376e-10)	(-1.735396e-05 -4.894609e-06 1.541181e-11)	(9.463796e-07 -5.235878e-06 3.375258e-10)
0.3875        	(-1.660463e-05 -1.026058e-05 2.713491e-10)	(-1.750181e-05 -5.055137e-06 1.309621e-11)	(8.971821e-07 -5.205447e-06 2.582529e-10)
0.390625      	(-1.647018e-05 -1.031880e-05 1.590536e-10)	(-1.731789e-05 -5.145076e-06 8.609430e-12)	(8.477105e-07 -5.173726e-06 1.504442e-10)
0.39375       	(-1.694945e-05 -9.252788e-06 4.759366e-11)	(-1.775079e-05 -4.110583e-06 5.341329e-12)	(8.013385e-07 -5.142206e-06 4.225233e-11)
0.396875      	(-1.662879e-05 -1.005195e-05 -1.030068e-10)	(-1.738530e-05 -4.938703e-06 6.659870e-13)	(7.565105e-07 -5.113243e-06 -1.036728e-10)
0.4           	(-1.722252e-05 -1.008916e-05 -2.522322e-10)	(-1.793343e-05 -5.004204e-06 2.169480e-12)	(7.109015e-07 -5.084952e-06 -2.544017e-10)
0.403125      	(-1.750896e-05 -9.856193e-06 -3.671248e-10)	(-1.817389e-05 -4.799425e-06 2.569641e-12)	(6.649291e-07 -5.056768e-06 -3.696945e-10)
0.40625       	(-1.782270e-05 -9.141596e-06 -4.553682e-10)	(-1.844377e-05 -4.115851e-06 6.887617e-14)	(6.210730e-07 -5.025746e-06 -4.554371e-10)
0.409375      	(-1.753218e-05 -9.376155e-06 -5.094797e-10)	(-1.811239e-05 -4.378810e-06 -4.950872e-12)	(5.802089e-07 -4.997345e-06 -5.045288e-10)
0.4125        	(-1.788409e-05 -9.828122e-06 -5.347233e-10)	(-1.842345e-05 -4.856229e-06 -1.011391e-11)	(5.393577e-07 -4.971894e-06 -5.246094e-10)
0.415625      	(-1.820552e-05 -8.301495e-06 -5.554897e-10)	(-1.870379e-05 -3.359569e-06 -1.152419e-11)	(4.982773e-07 -4.941926e-06 -5.439656e-10)
0.41875       	(-1.806648e-05 -8.841056e-06 -5.800949e-10)	(-1.852613e-05 -3.928529e-06 -1.413386e-11)	(4.596501e-07 -4.912527e-06 -5.659610e-10)
0.421875      	(-1.784769e-05 -8.937080e-06 -6.201999e-10)	(-1.826702e-05 -4.052603e-06 -1.616164e-11)	(4.193271e-07 -4.884477e-06 -6.040382e-10)
0.425         	(-1.888017e-05 -9.040061e-06 -6.841849e-10)	(-1.926139e-05 -4.180013e-06 -1.852593e-11)	(3.812242e-07 -4.860048e-06 -6.656589e-10)
0.428125      	(-1.904946e-05 -8.513502e-06 -7.321144e-10)	(-1.939401e-05 -3.680646e-06 -1.998662e-11)	(3.445498e-07 -4.832856e-06 -7.121278e-10)
0.43125       	(-1.887002e-05 -8.305795e-06 -7.715577e-10)	(-1.917899e-05 -3.499246e-06 -2.100020e-11)	(3.089675e-07 -4.806549e-06 -7.505575e-10)
0.434375      	(-1.941269e-05 -8.055703e-06 -8.378757e-10)	(-1.968692e-05 -3.274460e-06 -2.314887e-11)	(2.742318e-07 -4.781242e-06 -8.147268e-10)
0.4375        	(-1.893208e-05 -8.269237e-06 -9.137238e-10)	(-1.917052e-05 -3.512937e-06 -2.437590e-11)	(2.384438e-07 -4.756299e-06 -8.893479e-10)
0.440625      	(-1.914058e-05 -7.701341e-06 -9.844667e-10)	(-1.934545e-05 -2.968952e-06 -2.640155e-11)	(2.048676e-07 -4.732389e-06 -9.580652e-10)
0.44375       	(-1.973088e-05 -8.516552e-06 -1.076585e-09)	(-1.990400e-05 -3.804274e-06 -2.905086e-11)	(1.731175e-07 -4.712278e-06 -1.047534e-09)
0.446875      	(-1.965830e-05 -7.762341e-06 -1.160471e-09)	(-1.979819e-05 -3.073002e-06 -3.085750e-11)	(1.398975e-07 -4.689339e-06 -1.129614e-09)
0.45          	(-1.959679e-05 -7.519976e-06 -1.205910e-09)	(-1.970541e-05 -2.855603e-06 -3.401592e-11)	(1.086177e-07 -4.664373e-06 -1.171894e-09)
0.453125      	(-2.053609e-05 -6.794649e-06 -1.221185e-09)	(-2.061413e-05 -2.153024e-06 -3.536966e-11)	(7.803827e-08 -4.641625e-06 -1.185815e-09)
0.45625       	(-1.882655e-05 -7.850868e-06 -1.240906e-09)	(-1.887652e-05 -3.230251e-06 -3.713235e-11)	(4.996594e-08 -4.620617e-06 -1.203774e-09)
0.459375      	(-2.025373e-05 -7.280067e-06 -1.247894e-09)	(-2.027380e-05 -2.681704e-06 -3.926731e-11)	(2.007027e-08 -4.598363e-06 -1.208627e-09)
0.4625        	(-2.059069e-05 -6.146303e-06 -1.232967e-09)	(-2.058198e-05 -1.571896e-06 -3.969460e-11)	(-8.719111e-09 -4.574407e-06 -1.193272e-09)
0.465625      	(-1.997949e-05 -6.936587e-06 -1.229973e-09)	(-1.994478e-05 -2.383549e-06 -4.033313e-11)	(-3.471581e-08 -4.553039e-06 -1.189640e-09)
0.46875       	(-1.961437e-05 -7.007283e-06 -1.240265e-09)	(-1.955370e-05 -2.475168e-06 -4.297767e-11)	(-6.066685e-08 -4.532115e-06 -1.197287e-09)
0.471875      	(-2.127033e-05 -5.686674e-06 -1.247443e-09)	(-2.118288e-05 -1.178817e-06 -4.257554e-11)	(-8.745301e-08 -4.507856e-06 -1.204868e-09)
0.475         	(-2.021904e-05 -7.737056e-06 -1.250601e-09)	(-2.010488e-05 -3.249463e-06 -4.473510e-11)	(-1.141603e-07 -4.487593e-06 -1.205866e-09)
0.478125      	(-2.025322e-05 -5.892781e-06 -1.249112e-09)	(-2.011436e-05 -1.427557e-06 -4.554593e-11)	(-1.388628e-07 -4.465224e-06 -1.203566e-09)
0.48125       	(-2.045789e-05 -6.041815e-06 -1.282347e-09)	(-2.029684e-05 -1.598527e-06 -4.704714e-11)	(-1.610512e-07 -4.443287e-06 -1.235300e-09)
0.484375      	(-2.018937e-05 -6.384009e-06 -1.310072e-09)	(-2.000488e-05 -1.959656e-06 -4.808193e-11)	(-1.844898e-07 -4.424353e-06 -1.261990e-09)
0.4875        	(-2.029432e-05 -6.531841e-06 -1.325540e-09)	(-2.008765e-05 -2.125044e-06 -4.910093e-11)	(-2.066725e-07 -4.406797e-06 -1.276439e-09)
0.490625      	(-2.033590e-05 -6.218632e-06 -1.341237e-09)	(-2.010976e-05 -1.829959e-06 -4.947072e-11)	(-2.261356e-07 -4.388672e-06 -1.291766e-09)
0.49375       	(-2.065870e-05 -5.068807e-06 -1.338589e-09)	(-2.040996e-05 -7.022875e-07 -5.082471e-11)	(-2.487401e-07 -4.366519e-06 -1.287764e-09)
0.496875      	(-2.061374e-05 -5.455478e-06 -1.337619e-09)	(-2.034262e-05 -1.109306e-06 -5.229269e-11)	(-2.711291e-07 -4.346172e-06 -1.285326e-09)
0.5           	(-2.070914e-05 -5.583769e-06 -1.354435e-09)	(-2.041812e-05 -1.254963e-06 -5.292158e-11)	(-2.910202e-07 -4.328806e-06 -1.301514e-09)
0.503125      	(-1.998373e-05 -5.578263e-06 -1.371608e-09)	(-1.967447e-05 -1.267458e-06 -5.335604e-11)	(-3.092568e-07 -4.310805e-06 -1.318251e-09)
0.50625       	(-2.043991e-05 -5.202131e-06 -1.366859e-09)	(-2.011230e-05 -9.096400e-07 -5.386920e-11)	(-3.276149e-07 -4.292491e-06 -1.312990e-09)
0.509375      	(-1.988174e-05 -5.331981e-06 -1.358484e-09)	(-1.953699e-05 -1.057458e-06 -5.474669e-11)	(-3.447495e-07 -4.274523e-06 -1.303737e-09)
0.5125        	(-2.102189e-05 -5.101393e-06 -1.356782e-09)	(-2.065909e-05 -8.453933e-07 -5.585296e-11)	(-3.627981e-07 -4.255999e-06 -1.300929e-09)
0.515625      	(-2.035281e-05 -4.741705e-06 -1.338822e-09)	(-1.997428e-05 -5.046014e-07 -5.568846e-11)	(-3.785295e-07 -4.237104e-06 -1.283134e-09)
0.51875       	(-2.065299e-05 -4.886177e-06 -1.305282e-09)	(-2.025967e-05 -6.667779e-07 -5.673120e-11)	(-3.933240e-07 -4.219399e-06 -1.248551e-09)
0.521875      	(-1.912103e-05 -4.644704e-06 -1.287974e-09)	(-1.871477e-05 -4.426465e-07 -5.809156e-11)	(-4.062594e-07 -4.202058e-06 -1.229882e-09)
0.525         	(-2.022976e-05 -5.145997e-06 -1.291112e-09)	(-1.980997e-05 -9.599898e-07 -5.827636e-11)	(-4.197943e-07 -4.186007e-06 -1.232835e-09)
0.528125      	(-2.036410e-05 -4.709437e-06 -1.272132e-09)	(-1.992866e-05 -5.401406e-07 -5.746748e-11)	(-4.354451e-07 -4.169297e-06 -1.214665e-09)
0.53125       	(-1.971509e-05 -4.319337e-06 -1.256703e-09)	(-1.926785e-05 -1.678785e-07 -5.858948e-11)	(-4.472483e-07 -4.151459e-06 -1.198114e-09)
0.534375      	(-1.942552e-05 -4.779963e-06 -1.252909e-09)	(-1.896617e-05 -6.458234e-07 -5.866277e-11)	(-4.593490e-07 -4.134139e-06 -1.194247e-09)
0.5375        	(-2.079198e-05 -4.181229e-06 -1.243949e-09)	(-2.031817e-05 -6.462685e-08 -5.667949e-11)	(-4.738133e-07 -4.116602e-06 -1.187270e-09)
0.540625      	(-2.014653e-05 -4.709937e-06 -1.225760e-09)	(-1.965989e-05 -6.087314e-07 -5.730708e-11)	(-4.866406e-07 -4.101205e-06 -1.168453e-09)
0.54375       	(-1.876593e-05 -4.732483e-06 -1.208741e-09)	(-1.827002e-05 -6.459397e-07 -5.946812e-11)	(-4.959112e-07 -4.086544e-06 -1.149273e-09)
0.546875      	(-2.030211e-05 -4.069812e-06 -1.183911e-09)	(-1.979499e-05 5.497505e-10 -6.001259e-11)	(-5.071166e-07 -4.070362e-06 -1.123899e-09)
0.55          	(-1.911523e-05 -3.981032e-06 -1.152534e-09)	(-1.859781e-05 7.226591e-08 -6.051184e-11)	(-5.174240e-07 -4.053297e-06 -1.092022e-09)
0.553125      	(-1.912598e-05 -4.079194e-06 -1.106906e-09)	(-1.860105e-05 -4.017720e-08 -6.206570e-11)	(-5.249299e-07 -4.039016e-06 -1.044841e-09)
0.55625       	(-1.966417e-05 -3.600775e-06 -1.071975e-09)	(-1.913090e-05 4.223278e-07 -6.569565e-11)	(-5.332745e-07 -4.023103e-06 -1.006279e-09)
0.559375      	(-1.948579e-05 -4.261415e-06 -1.043631e-09)	(-1.894322e-05 -2.530122e-07 -6.402807e-11)	(-5.425757e-07 -4.008402e-06 -9.796030e-10)
0.5625        	(-1.870635e-05 -3.826137e-06 -1.011028e-09)	(-1.815501e-05 1.675935e-07 -6.450204e-11)	(-5.513407e-07 -3.993731e-06 -9.465262e-10)
0.565625      	(-1.891505e-05 -4.156594e-06 -9.809210e-10)	(-1.835706e-05 -1.764822e-07 -6.564091e-11)	(-5.579871e-07 -3.980112e-06 -9.152801e-10)
0.56875       	(-1.903820e-05 -3.743625e-06 -9.726252e-10)	(-1.847378e-05 2.217679e-07 -6.689129e-11)	(-5.644156e-07 -3.965393e-06 -9.057339e-10)
0.571875      	(-1.969961e-05 -3.892682e-06 -9.614833e-10)	(-1.912532e-05 5.793347e-08 -6.391738e-11)	(-5.742883e-07 -3.950616e-06 -8.975659e-10)
0.575         	(-1.855525e-05 -3.797829e-06 -9.342955e-10)	(-1.797219e-05 1.385999e-07 -6.292382e-11)	(-5.830586e-07 -3.936429e-06 -8.713717e-10)
0.578125      	(-1.823634e-05 -3.088173e-06 -8.938976e-10)	(-1.764758e-05 8.334769e-07 -6.476364e-11)	(-5.887570e-07 -3.921650e-06 -8.291340e-10)
0.58125       	(-1.853664e-05 -3.244289e-06 -8.563358e-10)	(-1.794180e-05 6.628624e-07 -6.148461e-11)	(-5.948408e-07 -3.907152e-06 -7.948512e-10)
0.584375      	(-1.845499e-05 -3.651503e-06 -8.320398e-10)	(-1.785461e-05 2.415586e-07 -6.607144e-11)	(-6.003765e-07 -3.893061e-06 -7.659684e-10)
0.5875        	(-1.873256e-05 -3.514400e-06 -8.014686e-10)	(-1.812535e-05 3.652610e-07 -6.875929e-11)	(-6.072104e-07 -3.879661e-06 -7.327093e-10)
0.590625      	(-1.796462e-05 -3.088506e-06 -7.646010e-10)	(-1.735051e-05 7.767054e-07 -6.821064e-11)	(-6.141123e-07 -3.865211e-06 -6.963903e-10)
0.59375       	(-1.827003e-05 -3.457517e-06 -7.431820e-10)	(-1.764968e-05 3.932294e-07 -6.966505e-11)	(-6.203525e-07 -3.850747e-06 -6.735170e-10)
0.596875      	(-1.809186e-05 -3.440338e-06 -7.326341e-10)	(-1.746567e-05 3.975301e-07 -7.211772e-11)	(-6.261882e-07 -3.837868e-06 -6.605164e-10)
0.6           	(-1.808043e-05 -2.670161e-06 -7.181195e-10)	(-1.744708e-05 1.152120e-06 -7.324498e-11)	(-6.333535e-07 -3.822281e-06 -6.448745e-10)
0.603125      	(-1.772334e-05 -3.779717e-06 -6.981732e-10)	(-1.708529e-05 3.007142e-08 -7.187689e-11)	(-6.380490e-07 -3.809788e-06 -6.262963e-10)
0.60625       	(-1.848066e-05 -3.041843e-06 -6.862976e-10)	(-1.783629e-05 7.542641e-07 -7.228335e-11)	(-6.443684e-07 -3.796107e-06 -6.140142e-10)
0.609375      	(-1.744366e-05 -2.956107e-06 -6.754797e-10)	(-1.679136e-05 8.237040e-07 -7.142116e-11)	(-6.523061e-07 -3.779810e-06 -6.040585e-10)
0.6125        	(-1.721550e-05 -3.335228e-06 -6.625967e-10)	(-1.655684e-05 4.291928e-07 -6.947411e-11)	(-6.586647e-07 -3.764421e-06 -5.931226e-10)
0.615625      	(-1.785409e-05 -2.104606e-06 -6.477573e-10)	(-1.718840e-05 1.642850e-06 -6.921786e-11)	(-6.656925e-07 -3.747456e-06 -5.785394e-10)
0.61875       	(-1.782050e-05 -2.910167e-06 -6.269459e-10)	(-1.714549e-05 8.208400e-07 -6.886211e-11)	(-6.750012e-07 -3.731007e-06 -5.580838e-10)
0.621875      	(-1.687154e-05 -2.908605e-06 -5.991244e-10)	(-1.618892e-05 8.069838e-07 -6.701440e-11)	(-6.826222e-07 -3.715589e-06 -5.321100e-10)
0.625         	(-1.796600e-05 -2.645925e-06 -5.741770e-10)	(-1.727555e-05 1.054750e-06 -6.552682e-11)	(-6.904543e-07 -3.700675e-06 -5.086502e-10)
0.628125      	(-1.684669e-05 -2.357811e-06 -5.522211e-10)	(-1.614837e-05 1.327519e-06 -6.372056e-11)	(-6.983183e-07 -3.685331e-06 -4.885005e-10)
0.63125       	(-1.767524e-05 -2.777882e-06 -5.224682e-10)	(-1.696881e-05 8.933227e-07 -6.208289e-11)	(-7.064247e-07 -3.671205e-06 -4.603853e-10)
0.634375      	(-1.693008e-05 -2.721483e-06 -4.887528e-10)	(-1.621674e-05 9.364238e-07 -6.049472e-11)	(-7.133454e-07 -3.657907e-06 -4.282581e-10)
0.6375        	(-1.709176e-05 -2.039819e-06 -4.566510e-10)	(-1.637244e-05 1.603905e-06 -5.928974e-11)	(-7.193117e-07 -3.643723e-06 -3.973613e-10)
0.640625      	(-1.690651e-05 -2.741994e-06 -4.342945e-10)	(-1.618219e-05 8.890802e-07 -5.804970e-11)	(-7.243190e-07 -3.631074e-06 -3.762448e-10)
0.64375       	(-1.697872e-05 -2.502026e-06 -4.177872e-10)	(-1.624884e-05 1.116369e-06 -5.651958e-11)	(-7.298803e-07 -3.618394e-06 -3.612677e-10)