# Force       
# CofR        : (0.000000e+00 0.000000e+00 0.000000e+00)
#
# Time        	total_x total_y total_z	pressure_x pressure_y pressure_z	viscous_x viscous_y viscous_z
0.0075         2.074831e-06 -3.199414e-05 5.359014e+01 3.052883e-06 -3.266203e-05 5.224980e+01 -9.780520e-07 6.678852e-07 1.340346e+00
0.015          1.145758e-05 5.475628e-05 -4.557741e+00 1.106107e-05 5.863520e-05 -5.253476e+00 3.965101e-07 -3.878923e-06 6.957346e-01
0.0225         1.548044e-05 -9.399890e-05 -4.445118e+00 1.438895e-05 -9.303602e-05 -4.917581e+00 1.091489e-06 -9.628854e-07 4.724627e-01
0.03           -1.775636e-05 -1.006486e-05 5.110422e-01 -1.792265e-05 -1.497340e-05 1.791541e-01 1.662874e-07 4.908547e-06 3.318882e-01
0.0375         -6.249208e-06 8.997258e-06 8.976739e-01 -5.990321e-06 1.742906e-06 6.217890e-01 -2.588870e-07 7.254352e-06 2.758849e-01
0.045          -2.347026e-06 1.361426e-05 9.306342e-01 -2.190780e-06 6.040423e-06 6.793658e-01 -1.562462e-07 7.573835e-06 2.512684e-01
0.0525         -7.158862e-07 1.413602e-05 9.676823e-01 -6.762443e-07 6.897805e-06 7.338624e-01 -3.964192e-08 7.238213e-06 2.338199e-01
0.06           -8.863726e-07 1.190343e-05 9.760718e-01 -8.967739e-07 5.150557e-06 7.561248e-01 1.040136e-08 6.752868e-06 2.199469e-01
0.0675         -2.654534e-07 1.159434e-05 9.702986e-01 -2.979181e-07 5.307586e-06 7.617077e-01 3.246467e-08 6.286758e-06 2.085908e-01
0.075          4.044946e-08 1.110029e-05 9.588600e-01 -6.143005e-09 5.237581e-06 7.597911e-01 4.659246e-08 5.862713e-06 1.990689e-01
0.0825         2.743909e-07 1.038944e-05 9.449719e-01 2.226948e-07 4.901253e-06 7.540387e-01 5.169611e-08 5.488191e-06 1.909332e-01
0.09           3.616849e-07 9.834266e-06 9.306439e-01 3.123972e-07 4.694213e-06 7.467641e-01 4.928770e-08 5.140053e-06 1.838798e-01
0.0975         4.557988e-07 9.317232e-06 9.165397e-01 4.125215e-07 4.506854e-06 7.388499e-01 4.327734e-08 4.810378e-06 1.776897e-01
0.105          5.373439e-07 8.683440e-06 9.036463e-01 5.003350e-07 4.190049e-06 7.314502e-01 3.700889e-08 4.493390e-06 1.721961e-01
0.1125         4.266787e-07 8.315522e-06 8.916472e-01 3.976481e-07 4.106105e-06 7.243697e-01 2.903062e-08 4.209417e-06 1.672775e-01
0.12           4.071829e-07 7.776981e-06 8.805333e-01 3.864866e-07 3.829691e-06 7.176931e-01 2.069625e-08 3.947290e-06 1.628402e-01
0.1275         4.024004e-07 7.841469e-06 8.703200e-01 3.890843e-07 4.105616e-06 7.115144e-01 1.331604e-08 3.735852e-06 1.588056e-01
0.135          4.169692e-07 6.948509e-06 8.609163e-01 4.108013e-07 3.441265e-06 7.057993e-01 6.167940e-09 3.507244e-06 1.551170e-01
0.1425         3.544249e-07 6.636084e-06 8.526814e-01 3.542554e-07 3.359921e-06 7.009531e-01 1.694938e-10 3.276163e-06 1.517282e-01
0.15           3.435177e-07 6.815415e-06 8.450690e-01 3.492433e-07 3.705292e-06 6.964800e-01 -5.725552e-09 3.110123e-06 1.485890e-01
0.1575         3.162007e-07 6.069730e-06 8.378447e-01 3.271785e-07 3.127496e-06 6.921680e-01 -1.097780e-08 2.942234e-06 1.456767e-01
0.165          2.554366e-07 5.869855e-06 8.313317e-01 2.708283e-07 3.096492e-06 6.883615e-01 -1.539179e-08 2.773363e-06 1.429702e-01
0.1725         2.952649e-07 5.726291e-06 8.252567e-01 3.144264e-07 3.099288e-06 6.848095e-01 -1.916155e-08 2.627003e-06 1.404472e-01
0.18           2.740768e-07 5.410772e-06 8.197042e-01 2.965851e-07 2.922289e-06 6.816173e-01 -2.250828e-08 2.488483e-06 1.380870e-01
0.1875         2.584192e-07 5.194970e-06 8.144761e-01 2.842385e-07 2.832557e-06 6.786040e-01 -2.581928e-08 2.362414e-06 1.358720e-01
0.195          1.455004e-07 5.478782e-06 8.097037e-01 1.721414e-07 3.236783e-06 6.759163e-01 -2.664101e-08 2.241999e-06 1.337874e-01
0.2025         2.528832e-07 4.848710e-06 8.055688e-01 2.816468e-07 2.726726e-06 6.737514e-01 -2.876356e-08 2.121984e-06 1.318173e-01
0.21           2.125764e-07 4.832831e-06 8.016392e-01 2.437015e-07 2.802540e-06 6.716871e-01 -3.112504e-08 2.030291e-06 1.299521e-01
0.2175         1.370005e-07 5.173544e-06 7.977024e-01 1.677501e-07 3.223728e-06 6.695171e-01 -3.074961e-08 1.949816e-06 1.281854e-01
0.225          1.167624e-07 4.986717e-06 7.941877e-01 1.470228e-07 3.121227e-06 6.676791e-01 -3.026039e-08 1.865490e-06 1.265087e-01
0.2325         1.085538e-07 4.797724e-06 7.907590e-01 1.387157e-07 3.019035e-06 6.658447e-01 -3.016182e-08 1.778689e-06 1.249144e-01
0.24           1.181942e-07 4.799433e-06 7.876498e-01 1.475389e-07 3.093527e-06 6.642539e-01 -2.934469e-08 1.705907e-06 1.233959e-01
0.2475         1.296978e-07 4.745186e-06 7.845149e-01 1.585936e-07 3.098834e-06 6.625737e-01 -2.889581e-08 1.646352e-06 1.219412e-01
0.255          1.162981e-07 4.510092e-06 7.816625e-01 1.448134e-07 2.929778e-06 6.611121e-01 -2.851530e-08 1.580314e-06 1.205505e-01
0.2625         1.108927e-07 4.418285e-06 7.789778e-01 1.387294e-07 2.902384e-06 6.597560e-01 -2.783671e-08 1.515902e-06 1.192218e-01
0.27           1.056926e-07 4.340481e-06 7.766061e-01 1.334075e-07 2.881595e-06 6.586563e-01 -2.771492e-08 1.458886e-06 1.179498e-01
0.2775         1.157306e-07 4.222561e-06 7.742060e-01 1.429051e-07 2.819689e-06 6.574771e-01 -2.717454e-08 1.402871e-06 1.167289e-01
0.285          1.080113e-07 4.186348e-06 7.719160e-01 1.344939e-07 2.831277e-06 6.563608e-01 -2.648255e-08 1.355071e-06 1.155552e-01
0.2925         1.048761e-07 4.069850e-06 7.697053e-01 1.308839e-07 2.761543e-06 6.552790e-01 -2.600782e-08 1.308308e-06 1.144263e-01
0.3            1.082102e-07 3.976788e-06 7.676064e-01 1.339477e-07 2.714894e-06 6.542658e-01 -2.573752e-08 1.261895e-06 1.133405e-01
0.3075         1.044185e-07 4.034520e-06 7.656652e-01 1.293546e-07 2.805589e-06 6.533682e-01 -2.493610e-08 1.228931e-06 1.122969e-01
0.315          1.052936e-07 3.931066e-06 7.635813e-01 1.298976e-07 2.733254e-06 6.522959e-01 -2.460396e-08 1.197811e-06 1.112854e-01
0.3225         1.062112e-07 3.834713e-06 7.617318e-01 1.304601e-07 2.672882e-06 6.514236e-01 -2.424898e-08 1.161831e-06 1.103083e-01
0.33           9.789898e-08 3.730828e-06 7.600184e-01 1.215170e-07 2.606516e-06 6.506514e-01 -2.361806e-08 1.124312e-06 1.093670e-01
0.3375         1.042958e-07 3.709792e-06 7.581676e-01 1.273470e-07 2.618462e-06 6.497143e-01 -2.305122e-08 1.091330e-06 1.084532e-01
0.345          9.926596e-08 3.724803e-06 7.565738e-01 1.219709e-07 2.656883e-06 6.490075e-01 -2.270498e-08 1.067920e-06 1.075663e-01
0.3525         9.589854e-08 3.603554e-06 7.550091e-01 1.178992e-07 2.560699e-06 6.483034e-01 -2.200064e-08 1.042855e-06 1.067058e-01
0.36           1.014948e-07 3.578204e-06 7.532602e-01 1.228730e-07 2.559488e-06 6.473758e-01 -2.137818e-08 1.018716e-06 1.058845e-01
0.3675         9.957957e-08 3.697278e-06 7.516143e-01 1.202689e-07 2.688741e-06 6.465205e-01 -2.068930e-08 1.008537e-06 1.050938e-01
0.375          1.032966e-07 3.458814e-06 7.500771e-01 1.234344e-07 2.474676e-06 6.457506e-01 -2.013775e-08 9.841377e-07 1.043266e-01
0.3825         9.649782e-08 3.419965e-06 7.486693e-01 1.160581e-07 2.466210e-06 6.450878e-01 -1.956028e-08 9.537553e-07 1.035815e-01
0.39           9.648985e-08 3.498406e-06 7.471847e-01 1.155654e-07 2.558290e-06 6.443278e-01 -1.907552e-08 9.401158e-07 1.028570e-01
0.3975         9.626964e-08 3.372372e-06 7.458249e-01 1.146390e-07 2.450875e-06 6.436722e-01 -1.836931e-08 9.214975e-07 1.021527e-01
0.405          9.364407e-08 3.413878e-06 7.445012e-01 1.114388e-07 2.507402e-06 6.430330e-01 -1.779474e-08 9.064766e-07 1.014682e-01
0.4125         9.688845e-08 3.406099e-06 7.430868e-01 1.142365e-07 2.508617e-06 6.422863e-01 -1.734807e-08 8.974826e-07 1.008005e-01
0.42           1.018123e-07 3.333144e-06 7.417349e-01 1.182954e-07 2.449281e-06 6.415846e-01 -1.648304e-08 8.838626e-07 1.001503e-01
0.4275         9.422988e-08 3.303313e-06 7.404366e-01 1.099957e-07 2.434680e-06 6.409183e-01 -1.576580e-08 8.686330e-07 9.951830e-02
0.435          9.678134e-08 3.273052e-06 7.391505e-01 1.118899e-07 2.418408e-06 6.402473e-01 -1.510861e-08 8.546446e-07 9.890317e-02
0.4425         9.248220e-08 3.285694e-06 7.378907e-01 1.070484e-07 2.440698e-06 6.395868e-01 -1.456618e-08 8.449966e-07 9.830389e-02
0.45           9.824460e-08 3.120901e-06 7.366639e-01 1.121787e-07 2.294936e-06 6.389436e-01 -1.393407e-08 8.259652e-07 9.772027e-02
0.4575         9.558598e-08 3.256751e-06 7.353889e-01 1.088045e-07 2.438866e-06 6.382376e-01 -1.321856e-08 8.178848e-07 9.715140e-02
0.465          9.645234e-08 3.228764e-06 7.342105e-01 1.087137e-07 2.411312e-06 6.376132e-01 -1.226132e-08 8.174515e-07 9.659732e-02
0.4725         9.600963e-08 3.180999e-06 7.330009e-01 1.073495e-07 2.371538e-06 6.369444e-01 -1.133989e-08 8.094609e-07 9.605655e-02
0.48           9.737293e-08 3.240250e-06 7.317607e-01 1.080988e-07 2.433676e-06 6.362339e-01 -1.072584e-08 8.065741e-07 9.552687e-02
0.4875         9.648072e-08 3.125884e-06 7.306054e-01 1.066054e-07 2.328464e-06 6.355957e-01 -1.012470e-08 7.974202e-07 9.500973e-02
0.495          9.463314e-08 3.104168e-06 7.294493e-01 1.041678e-07 2.318532e-06 6.349438e-01 -9.534619e-09 7.856363e-07 9.450558e-02
0.5025         9.217894e-08 3.083560e-06 7.283347e-01 1.011140e-07 2.308453e-06 6.343206e-01 -8.935032e-09 7.751065e-07 9.401406e-02
0.51           9.943746e-08 3.174121e-06 7.271872e-01 1.072463e-07 2.398129e-06 6.336534e-01 -7.808888e-09 7.759927e-07 9.353381e-02
0.5175         9.895799e-08 3.112903e-06 7.260296e-01 1.060283e-07 2.337504e-06 6.329659e-01 -7.070282e-09 7.753986e-07 9.306370e-02
0.525          9.603946e-08 3.042967e-06 7.249014e-01 1.025669e-07 2.277086e-06 6.322973e-01 -6.527484e-09 7.658816e-07 9.260411e-02
0.5325         9.674813e-08 3.126628e-06 7.238449e-01 1.025327e-07 2.361468e-06 6.316895e-01 -5.784543e-09 7.651607e-07 9.215537e-02
0.54           9.417753e-08 3.052886e-06 7.227288e-01 9.929532e-08 2.290276e-06 6.310123e-01 -5.117789e-09 7.626095e-07 9.171652e-02
0.5475         9.818287e-08 3.038505e-06 7.216189e-01 1.026053e-07 2.281636e-06 6.303329e-01 -4.422436e-09 7.568693e-07 9.128598e-02
0.555          9.777224e-08 3.139637e-06 7.205304e-01 1.012734e-07 2.377459e-06 6.296662e-01 -3.501190e-09 7.621782e-07 9.086425e-02
0.5625         9.787991e-08 3.035460e-06 7.194073e-01 1.007804e-07 2.273775e-06 6.289565e-01 -2.900516e-09 7.616849e-07 9.045079e-02
0.57           9.701329e-08 2.969920e-06 7.183687e-01 9.947924e-08 2.221239e-06 6.283215e-01 -2.465953e-09 7.486812e-07 9.004723e-02
0.5775         1.001728e-07 3.073504e-06 7.172883e-01 1.019203e-07 2.325133e-06 6.276357e-01 -1.747554e-09 7.483712e-07 8.965253e-02
0.585          9.665210e-08 3.049619e-06 7.162416e-01 9.769259e-08 2.297321e-06 6.269756e-01 -1.040493e-09 7.522972e-07 8.926599e-02
0.5925         9.853908e-08 2.998475e-06 7.151851e-01 9.897325e-08 2.247858e-06 6.262981e-01 -4.341703e-10 7.506172e-07 8.888700e-02
0.6            9.736091e-08 3.016817e-06 7.141511e-01 9.707648e-08 2.267795e-06 6.256354e-01 2.844296e-10 7.490221e-07 8.851572e-02
0.6075         9.749054e-08 2.953994e-06 7.131497e-01 9.638209e-08 2.211302e-06 6.249971e-01 1.108455e-09 7.426917e-07 8.815262e-02
0.615          1.039065e-07 3.070754e-06 7.120525e-01 1.020659e-07 2.321372e-06 6.242570e-01 1.840617e-09 7.493813e-07 8.779550e-02
0.6225         9.830891e-08 3.043120e-06 7.110305e-01 9.586015e-08 2.286250e-06 6.235857e-01 2.448757e-09 7.568698e-07 8.744486e-02
0.63           9.796407e-08 2.998717e-06 7.100264e-01 9.503272e-08 2.242207e-06 6.229250e-01 2.931356e-09 7.565101e-07 8.710133e-02
0.6375         9.963513e-08 3.010205e-06 7.090149e-01 9.609001e-08 2.254791e-06 6.222506e-01 3.545113e-09 7.554146e-07 8.676433e-02
0.645          9.925515e-08 3.022291e-06 7.080211e-01 9.502584e-08 2.263839e-06 6.215872e-01 4.229307e-09 7.584520e-07 8.643391e-02
0.6525         1.001802e-07 2.967234e-06 7.070267e-01 9.542899e-08 2.210034e-06 6.209168e-01 4.751202e-09 7.571998e-07 8.610990e-02
0.66           1.014117e-07 3.046013e-06 7.060035e-01 9.587077e-08 2.283669e-06 6.202117e-01 5.540907e-09 7.623446e-07 8.579172e-02
0.6675         1.006489e-07 2.964776e-06 7.050119e-01 9.450497e-08 2.202265e-06 6.195327e-01 6.143937e-09 7.625114e-07 8.547928e-02
0.675          1.028233e-07 3.022229e-06 7.040137e-01 9.607214e-08 2.256849e-06 6.188411e-01 6.751168e-09 7.653795e-07 8.517258e-02
0.6825         1.006766e-07 2.996699e-06 7.030263e-01 9.326877e-08 2.228477e-06 6.181548e-01 7.407822e-09 7.682216e-07 8.487142e-02
0.69           1.456152e-07 2.913639e-06 6.992296e-01 1.353472e-07 2.136711e-06 6.146091e-01 1.026800e-08 7.769277e-07 8.462050e-02
0.6975         1.344719e-07 2.922032e-06 6.984403e-01 1.215930e-07 2.132853e-06 6.140530e-01 1.287899e-08 7.891793e-07 8.438731e-02
0.705          1.365364e-07 2.945851e-06 6.976151e-01 1.219760e-07 2.144240e-06 6.134656e-01 1.456044e-08 8.016107e-07 8.414950e-02
0.7125         1.391362e-07 3.015346e-06 6.968173e-01 1.230498e-07 2.196613e-06 6.129059e-01 1.608643e-08 8.187334e-07 8.391142e-02
0.72           1.382998e-07 2.976000e-06 6.959080e-01 1.210978e-07 2.146002e-06 6.122352e-01 1.720194e-08 8.299982e-07 8.367281e-02
0.7275         1.414586e-07 3.040524e-06 6.950640e-01 1.230877e-07 2.197174e-06 6.116289e-01 1.837091e-08 8.433499e-07 8.343511e-02
0.735          1.429585e-07 3.013694e-06 6.942430e-01 1.233603e-07 2.158781e-06 6.110432e-01 1.959824e-08 8.549129e-07 8.319982e-02
0.7425         1.418046e-07 3.035130e-06 6.933982e-01 1.212903e-07 2.170120e-06 6.104312e-01 2.051431e-08 8.650101e-07 8.296696e-02
0.75           1.419929e-07 3.062664e-06 6.925737e-01 1.207660e-07 2.185558e-06 6.098372e-01 2.122690e-08 8.771061e-07 8.273650e-02
0.7575         1.440607e-07 3.073480e-06 6.917340e-01 1.219987e-07 2.184325e-06 6.092255e-01 2.206194e-08 8.891550e-07 8.250847e-02
0.765          1.435899e-07 3.083202e-06 6.908997e-01 1.207416e-07 2.182775e-06 6.086167e-01 2.284828e-08 9.004264e-07 8.228307e-02
0.7725         1.433475e-07 3.104661e-06 6.900879e-01 1.198829e-07 2.192013e-06 6.080274e-01 2.346458e-08 9.126476e-07 8.206054e-02
0.78           1.463241e-07 3.144059e-06 6.892108e-01 1.217441e-07 2.215066e-06 6.073712e-01 2.457995e-08 9.289939e-07 8.183957e-02
0.7875         1.509223e-07 3.103764e-06 6.883624e-01 1.250308e-07 2.172931e-06 6.067421e-01 2.589143e-08 9.308327e-07 8.162033e-02
0.795          1.490076e-07 3.113598e-06 6.875308e-01 1.220775e-07 2.183157e-06 6.061268e-01 2.693012e-08 9.304409e-07 8.140400e-02
0.8025         1.525937e-07 3.132992e-06 6.866907e-01 1.247743e-07 2.197979e-06 6.055001e-01 2.781944e-08 9.350134e-07 8.119056e-02
0.81           1.536418e-07 3.127311e-06 6.858809e-01 1.248966e-07 2.185693e-06 6.049010e-01 2.874518e-08 9.416183e-07 8.097991e-02
0.8175         1.549677e-07 3.112700e-06 6.850693e-01 1.252416e-07 2.162607e-06 6.042972e-01 2.972615e-08 9.500934e-07 8.077208e-02
0.825          1.570188e-07 3.132349e-06 6.842588e-01 1.262342e-07 2.170629e-06 6.036917e-01 3.078459e-08 9.617193e-07 8.056710e-02
0.8325         1.568170e-07 3.123001e-06 6.834506e-01 1.251512e-07 2.150385e-06 6.030854e-01 3.166578e-08 9.726163e-07 8.036514e-02
0.84           1.586299e-07 3.133942e-06 6.825931e-01 1.261436e-07 2.150462e-06 6.024278e-01 3.248636e-08 9.834799e-07 8.016525e-02
0.8475         1.597388e-07 3.142279e-06 6.817801e-01 1.263987e-07 2.147016e-06 6.018123e-01 3.334010e-08 9.952627e-07 7.996781e-02
0.855          1.597963e-07 3.159612e-06 6.809806e-01 1.257150e-07 2.151648e-06 6.012074e-01 3.408136e-08 1.007964e-06 7.977319e-02
0.8625         1.616122e-07 3.142085e-06 6.801813e-01 1.267791e-07 2.123560e-06 6.006000e-01 3.483306e-08 1.018525e-06 7.958123e-02
0.87           1.625403e-07 3.181491e-06 6.793874e-01 1.269529e-07 2.150323e-06 5.999957e-01 3.558738e-08 1.031168e-06 7.939169e-02
0.8775         1.634779e-07 3.176893e-06 6.785913e-01 1.271508e-07 2.133357e-06 5.993868e-01 3.632708e-08 1.043536e-06 7.920447e-02
0.885          1.639776e-07 3.174283e-06 6.777893e-01 1.269795e-07 2.120304e-06 5.987697e-01 3.699807e-08 1.053980e-06 7.901963e-02
0.8925         1.642147e-07 3.151294e-06 6.770179e-01 1.266434e-07 2.090038e-06 5.981804e-01 3.757128e-08 1.061256e-06 7.883750e-02
0.9            1.635686e-07 3.192780e-06 6.761931e-01 1.255138e-07 2.120660e-06 5.975359e-01 3.805482e-08 1.072120e-06 7.865719e-02
0.9075         1.675511e-07 3.220558e-06 6.754280e-01 1.287519e-07 2.134303e-06 5.969489e-01 3.879913e-08 1.086255e-06 7.847913e-02
0.915          1.686391e-07 3.216953e-06 6.746196e-01 1.290580e-07 2.118491e-06 5.963165e-01 3.958109e-08 1.098462e-06 7.830308e-02
0.9225         1.669933e-07 3.208467e-06 6.738267e-01 1.268637e-07 2.100346e-06 5.956977e-01 4.012966e-08 1.108121e-06 7.812896e-02
0.93           1.673883e-07 3.213484e-06 6.730610e-01 1.268108e-07 2.096690e-06 5.951038e-01 4.057748e-08 1.116794e-06 7.795717e-02
0.9375         1.705178e-07 3.261076e-06 6.722877e-01 1.294079e-07 2.132551e-06 5.945002e-01 4.110991e-08 1.128525e-06 7.778752e-02
0.945          1.704976e-07 3.266034e-06 6.715181e-01 1.287841e-07 2.125418e-06 5.938983e-01 4.171354e-08 1.140616e-06 7.761982e-02
0.9525         1.705412e-07 3.243304e-06 6.707498e-01 1.285522e-07 2.096815e-06 5.932956e-01 4.198893e-08 1.146489e-06 7.745412e-02
0.96           1.690721e-07 3.259085e-06 6.700026e-01 1.267651e-07 2.105185e-06 5.927120e-01 4.230704e-08 1.153900e-06 7.729058e-02
0.9675         1.712128e-07 3.261938e-06 6.692505e-01 1.283711e-07 2.097926e-06 5.921213e-01 4.284173e-08 1.164012e-06 7.712914e-02
0.975          1.712214e-07 3.278787e-06 6.684559e-01 1.279340e-07 2.104845e-06 5.914868e-01 4.328737e-08 1.173942e-06 7.696915e-02
0.9825         1.715801e-07 3.272981e-06 6.677019e-01 1.278459e-07 2.090211e-06 5.908911e-01 4.373424e-08 1.182771e-06 7.681086e-02
0.99           1.700930e-07 3.273448e-06 6.669591e-01 1.260449e-07 2.082721e-06 5.903045e-01 4.404817e-08 1.190728e-06 7.665463e-02
0.9975         1.729137e-07 3.300165e-06 6.662076e-01 1.283832e-07 2.099671e-06 5.897074e-01 4.453054e-08 1.200494e-06 7.650020e-02
1.005          1.725306e-07 3.285663e-06 6.654555e-01 1.275123e-07 2.076981e-06 5.891080e-01 4.501836e-08 1.208682e-06 7.634746e-02
1.0125         1.714993e-07 3.311608e-06 6.647249e-01 1.261626e-07 2.093806e-06 5.885283e-01 4.533670e-08 1.217802e-06 7.619661e-02
1.02           1.740019e-07 3.303846e-06 6.639852e-01 1.282185e-07 2.077917e-06 5.879377e-01 4.578340e-08 1.225930e-06 7.604749e-02
1.0275         1.722814e-07 3.330873e-06 6.632616e-01 1.261387e-07 2.095051e-06 5.873614e-01 4.614263e-08 1.235822e-06 7.590021e-02
1.035          1.738995e-07 3.330318e-06 6.625166e-01 1.273276e-07 2.085092e-06 5.867622e-01 4.657192e-08 1.245226e-06 7.575441e-02
1.0425         1.727741e-07 3.294897e-06 6.617922e-01 1.258974e-07 2.045204e-06 5.861819e-01 4.687676e-08 1.249693e-06 7.561023e-02
1.05           1.756127e-07 3.375201e-06 6.610587e-01 1.282419e-07 2.114676e-06 5.855911e-01 4.737078e-08 1.260524e-06 7.546760e-02
1.0575         1.733673e-07 3.321751e-06 6.603380e-01 1.256734e-07 2.053800e-06 5.850114e-01 4.769391e-08 1.267951e-06 7.532651e-02
1.065          1.744758e-07 3.359319e-06 6.596139e-01 1.264748e-07 2.083480e-06 5.844269e-01 4.800107e-08 1.275839e-06 7.518701e-02
1.0725         1.730428e-07 3.345065e-06 6.589059e-01 1.248171e-07 2.061825e-06 5.838567e-01 4.822565e-08 1.283240e-06 7.504911e-02
1.08           1.740667e-07 3.345726e-06 6.581965e-01 1.255615e-07 2.056462e-06 5.832837e-01 4.850516e-08 1.289263e-06 7.491287e-02
1.0875         1.740389e-07 3.361956e-06 6.574807e-01 1.252369e-07 2.065417e-06 5.827026e-01 4.880194e-08 1.296539e-06 7.477817e-02
1.095          1.750697e-07 3.367394e-06 6.567756e-01 1.259048e-07 2.063265e-06 5.821307e-01 4.916493e-08 1.304129e-06 7.464491e-02
1.1025         1.731729e-07 3.338876e-06 6.560779e-01 1.237936e-07 2.030523e-06 5.815648e-01 4.937938e-08 1.308353e-06 7.451311e-02
1.11           1.749191e-07 3.409498e-06 6.554006e-01 1.252378e-07 2.091266e-06 5.810177e-01 4.968128e-08 1.318231e-06 7.438294e-02
1.1175         1.743763e-07 3.396990e-06 6.546724e-01 1.244355e-07 2.068949e-06 5.804186e-01 4.994072e-08 1.328041e-06 7.425377e-02
1.125          1.738879e-07 3.380479e-06 6.539788e-01 1.237320e-07 2.046513e-06 5.798530e-01 5.015592e-08 1.333966e-06 7.412580e-02
1.1325         1.742587e-07 3.402717e-06 6.533043e-01 1.238676e-07 2.061951e-06 5.793049e-01 5.039104e-08 1.340766e-06 7.399944e-02
1.14           1.746012e-07 3.402224e-06 6.526214e-01 1.239360e-07 2.054514e-06 5.787469e-01 5.066524e-08 1.347710e-06 7.387445e-02
1.1475         1.744221e-07 3.409790e-06 6.519301e-01 1.235017e-07 2.055277e-06 5.781793e-01 5.092037e-08 1.354514e-06 7.375071e-02
1.155          1.738061e-07 3.416106e-06 6.512574e-01 1.226940e-07 2.054840e-06 5.776292e-01 5.111211e-08 1.361266e-06 7.362827e-02
1.1625         1.749516e-07 3.395670e-06 6.505894e-01 1.235858e-07 2.030088e-06 5.770823e-01 5.136582e-08 1.365582e-06 7.350717e-02
1.17           1.741238e-07 3.421292e-06 6.499134e-01 1.225150e-07 2.049443e-06 5.765261e-01 5.160876e-08 1.371848e-06 7.338724e-02
1.1775         1.747342e-07 3.404046e-06 6.492439e-01 1.228720e-07 2.027051e-06 5.759753e-01 5.186229e-08 1.376996e-06 7.326851e-02
1.185          1.738624e-07 3.409604e-06 6.485787e-01 1.218143e-07 2.028139e-06 5.754277e-01 5.204808e-08 1.381465e-06 7.315104e-02
1.1925         1.743215e-07 3.428986e-06 6.479173e-01 1.220819e-07 2.041023e-06 5.748825e-01 5.223962e-08 1.387963e-06 7.303475e-02
1.2            1.728857e-07 3.429707e-06 6.472754e-01 1.205457e-07 2.035147e-06 5.743556e-01 5.233997e-08 1.394560e-06 7.291980e-02
1.2075         1.747155e-07 3.435024e-06 6.466011e-01 1.221533e-07 2.034395e-06 5.737953e-01 5.256222e-08 1.400630e-06 7.280579e-02
1.215          1.742790e-07 3.435940e-06 6.459472e-01 1.214562e-07 2.029650e-06 5.732544e-01 5.282281e-08 1.406290e-06 7.269279e-02
1.2225         1.731582e-07 3.426323e-06 6.452946e-01 1.202038e-07 2.015745e-06 5.727137e-01 5.295441e-08 1.410578e-06 7.258097e-02
1.23           1.745469e-07 3.434005e-06 6.446518e-01 1.213630e-07 2.018920e-06 5.721814e-01 5.318396e-08 1.415086e-06 7.247032e-02
1.2375         1.753822e-07 3.474353e-06 6.440105e-01 1.218456e-07 2.050866e-06 5.716497e-01 5.353658e-08 1.423487e-06 7.236078e-02
1.245          1.729291e-07 3.453672e-06 6.433726e-01 1.192974e-07 2.023911e-06 5.711204e-01 5.363171e-08 1.429761e-06 7.225230e-02
1.2525         1.728638e-07 3.417184e-06 6.427405e-01 1.191867e-07 1.985813e-06 5.705956e-01 5.367717e-08 1.431371e-06 7.214494e-02
1.26           1.737382e-07 3.484723e-06 6.421102e-01 1.198877e-07 2.046275e-06 5.700716e-01 5.385051e-08 1.438448e-06 7.203865e-02
1.2675         1.735326e-07 3.453536e-06 6.414968e-01 1.194824e-07 2.009177e-06 5.695633e-01 5.405012e-08 1.444359e-06 7.193355e-02
1.275          1.721782e-07 3.469702e-06 6.408524e-01 1.180679e-07 2.020175e-06 5.690231e-01 5.411037e-08 1.449527e-06 7.182924e-02
1.2825         1.752598e-07 3.468931e-06 6.402150e-01 1.208347e-07 2.013968e-06 5.684893e-01 5.442514e-08 1.454963e-06 7.172574e-02
1.29           1.718973e-07 3.471756e-06 6.396023e-01 1.173590e-07 2.011722e-06 5.679790e-01 5.453834e-08 1.460034e-06 7.162330e-02
1.2975         1.736124e-07 3.472767e-06 6.390071e-01 1.189135e-07 2.007960e-06 5.674850e-01 5.469886e-08 1.464807e-06 7.152210e-02
1.305          1.713985e-07 3.472291e-06 6.383766e-01 1.166495e-07 2.003074e-06 5.669549e-01 5.474893e-08 1.469217e-06 7.142173e-02
1.3125         1.743571e-07 3.468772e-06 6.377768e-01 1.193862e-07 1.995871e-06 5.664546e-01 5.497092e-08 1.472901e-06 7.132225e-02
1.32           1.709708e-07 3.495506e-06 6.371540e-01 1.159447e-07 2.016192e-06 5.659304e-01 5.502609e-08 1.479314e-06 7.122358e-02
1.3275         1.726644e-07 3.486824e-06 6.365595e-01 1.175121e-07 2.001931e-06 5.654336e-01 5.515229e-08 1.484893e-06 7.112589e-02
1.335          1.720113e-07 3.486076e-06 6.359614e-01 1.167105e-07 1.996924e-06 5.649323e-01 5.530074e-08 1.489152e-06 7.102920e-02
1.3425         1.734003e-07 3.484454e-06 6.353674e-01 1.178605e-07 1.991680e-06 5.644340e-01 5.553980e-08 1.492774e-06 7.093341e-02
1.35           1.718439e-07 3.478163e-06 6.347736e-01 1.161582e-07 1.982174e-06 5.639351e-01 5.568576e-08 1.495989e-06 7.083850e-02
1.3575         1.719175e-07 3.491482e-06 6.341776e-01 1.161359e-07 1.991091e-06 5.634332e-01 5.578160e-08 1.500391e-06 7.074443e-02
1.365          1.724086e-07 3.475324e-06 6.335953e-01 1.164622e-07 1.972039e-06 5.629441e-01 5.594641e-08 1.503285e-06 7.065125e-02
1.3725         1.721173e-07 3.515054e-06 6.330198e-01 1.159958e-07 2.005567e-06 5.624608e-01 5.612154e-08 1.509487e-06 7.055901e-02
1.38           1.726076e-07 3.499581e-06 6.324191e-01 1.162995e-07 1.984642e-06 5.619517e-01 5.630811e-08 1.514939e-06 7.046740e-02
1.3875         1.720113e-07 3.505581e-06 6.318392e-01 1.155508e-07 1.986216e-06 5.614627e-01 5.646046e-08 1.519365e-06 7.037652e-02
1.395          1.714895e-07 3.477171e-06 6.312617e-01 1.149308e-07 1.956123e-06 5.609752e-01 5.655873e-08 1.521049e-06 7.028650e-02
1.4025         1.710266e-07 3.505486e-06 6.306949e-01 1.143980e-07 1.980794e-06 5.604975e-01 5.662857e-08 1.524692e-06 7.019737e-02
1.41           1.721791e-07 3.524166e-06 6.301337e-01 1.153791e-07 1.992956e-06 5.600246e-01 5.679997e-08 1.531210e-06 7.010913e-02
1.4175         1.706130e-07 3.501222e-06 6.295649e-01 1.137303e-07 1.966062e-06 5.595433e-01 5.688269e-08 1.535160e-06 7.002162e-02
1.425          1.709666e-07 3.514458e-06 6.289937e-01 1.140049e-07 1.975340e-06 5.590589e-01 5.696167e-08 1.539118e-06 6.993477e-02
1.4325         1.702611e-07 3.492323e-06 6.284413e-01 1.132266e-07 1.950941e-06 5.585925e-01 5.703448e-08 1.541382e-06 6.984876e-02
1.44           1.709681e-07 3.501321e-06 6.278958e-01 1.137969e-07 1.957498e-06 5.581322e-01 5.717116e-08 1.543823e-06 6.976368e-02
1.4475         1.704566e-07 3.510027e-06 6.273177e-01 1.131665e-07 1.962186e-06 5.576386e-01 5.729018e-08 1.547840e-06 6.967909e-02
1.455          1.708960e-07 3.512523e-06 6.267614e-01 1.134718e-07 1.960577e-06 5.571663e-01 5.742420e-08 1.551946e-06 6.959508e-02
1.4625         1.694281e-07 3.513604e-06 6.262262e-01 1.119405e-07 1.957561e-06 5.567142e-01 5.748763e-08 1.556043e-06 6.951198e-02
1.47           1.713464e-07 3.509725e-06 6.256834e-01 1.136587e-07 1.950328e-06 5.562537e-01 5.768770e-08 1.559396e-06 6.942969e-02
1.4775         1.688916e-07 3.490909e-06 6.251558e-01 1.111704e-07 1.930243e-06 5.558076e-01 5.772122e-08 1.560666e-06 6.934824e-02
1.485          1.705174e-07 3.546544e-06 6.245901e-01 1.126663e-07 1.979536e-06 5.553229e-01 5.785113e-08 1.567008e-06 6.926719e-02
1.4925         1.689800e-07 3.501129e-06 6.240501e-01 1.110637e-07 1.930802e-06 5.548634e-01 5.791637e-08 1.570326e-06 6.918670e-02
1.5            1.696561e-07 3.505720e-06 6.235185e-01 1.116491e-07 1.933911e-06 5.544115e-01 5.800704e-08 1.571810e-06 6.910700e-02
1.5075         1.693428e-07 3.542082e-06 6.229885e-01 1.112261e-07 1.964562e-06 5.539605e-01 5.811667e-08 1.577519e-06 6.902802e-02
1.515          1.694785e-07 3.535184e-06 6.224638e-01 1.112287e-07 1.952048e-06 5.535141e-01 5.824984e-08 1.583136e-06 6.894972e-02
1.5225         1.692101e-07 3.517462e-06 6.219385e-01 1.108430e-07 1.931783e-06 5.530664e-01 5.836709e-08 1.585680e-06 6.887207e-02
1.53           1.692902e-07 3.528626e-06 6.214135e-01 1.107989e-07 1.939975e-06 5.526184e-01 5.849129e-08 1.588651e-06 6.879505e-02
1.5375         1.690991e-07 3.526703e-06 6.208855e-01 1.104780e-07 1.934436e-06 5.521669e-01 5.862108e-08 1.592267e-06 6.871860e-02
1.545          1.685460e-07 3.524640e-06 6.203801e-01 1.098519e-07 1.929520e-06 5.517372e-01 5.869407e-08 1.595120e-06 6.864286e-02
1.5525         1.688364e-07 3.532488e-06 6.198672e-01 1.100427e-07 1.933973e-06 5.512994e-01 5.879369e-08 1.598515e-06 6.856780e-02
1.56           1.674844e-07 3.515476e-06 6.193650e-01 1.086769e-07 1.914953e-06 5.508716e-01 5.880756e-08 1.600523e-06 6.849343e-02
1.5675         1.698671e-07 3.544210e-06 6.188344e-01 1.108510e-07 1.939321e-06 5.504150e-01 5.901609e-08 1.604889e-06 6.841942e-02
1.575          1.675767e-07 3.534820e-06 6.183326e-01 1.084644e-07 1.925791e-06 5.499866e-01 5.911226e-08 1.609028e-06 6.834599e-02
1.5825         1.686817e-07 3.532305e-06 6.178352e-01 1.094573e-07 1.920399e-06 5.495620e-01 5.922439e-08 1.611906e-06 6.827324e-02
1.59           1.678554e-07 3.533706e-06 6.173300e-01 1.085264e-07 1.918812e-06 5.491290e-01 5.932903e-08 1.614894e-06 6.820107e-02
1.5975         1.678889e-07 3.525353e-06 6.168328e-01 1.084772e-07 1.908226e-06 5.487033e-01 5.941162e-08 1.617127e-06 6.812946e-02
1.605          1.669115e-07 3.533410e-06 6.163380e-01 1.074752e-07 1.913498e-06 5.482796e-01 5.943631e-08 1.619913e-06 6.805843e-02
1.6125         1.690862e-07 3.539013e-06 6.158461e-01 1.094277e-07 1.915476e-06 5.478581e-01 5.965850e-08 1.623537e-06 6.798798e-02
1.62           1.660968e-07 3.528045e-06 6.153522e-01 1.064191e-07 1.902054e-06 5.474342e-01 5.967767e-08 1.625990e-06 6.791806e-02
1.6275         1.681704e-07 3.523718e-06 6.148698e-01 1.083784e-07 1.896041e-06 5.470211e-01 5.979200e-08 1.627676e-06 6.784871e-02
1.635          1.663835e-07 3.543683e-06 6.143901e-01 1.065189e-07 1.912226e-06 5.466101e-01 5.986453e-08 1.631458e-06 6.777997e-02
1.6425         1.673517e-07 3.521075e-06 6.138961e-01 1.073981e-07 1.887564e-06 5.461844e-01 5.995358e-08 1.633510e-06 6.771163e-02
1.65           1.660103e-07 3.536551e-06 6.134148e-01 1.060112e-07 1.900206e-06 5.457710e-01 5.999913e-08 1.636345e-06 6.764377e-02
1.6575         1.575898e-07 3.561013e-06 6.129393e-01 9.724306e-08 1.922283e-06 5.453628e-01 6.034677e-08 1.638730e-06 6.757648e-02
1.665          1.556732e-07 3.544583e-06 6.124680e-01 9.506301e-08 1.905519e-06 5.449582e-01 6.061024e-08 1.639064e-06 6.750976e-02
1.6725         1.581215e-07 3.551031e-06 6.119951e-01 9.713485e-08 1.911009e-06 5.445515e-01 6.098668e-08 1.640022e-06 6.744356e-02
1.68           1.563668e-07 3.550747e-06 6.115262e-01 9.509911e-08 1.909045e-06 5.441484e-01 6.126772e-08 1.641702e-06 6.737785e-02
1.6875         1.584002e-07 3.560538e-06 6.110661e-01 9.676621e-08 1.915985e-06 5.437534e-01 6.163402e-08 1.644553e-06 6.731271e-02