# Moment      
# CofR        : (0.000000e+00 0.000000e+00 0.000000e+00)
#
# Time        	total_x total_y total_z	pressure_x pressure_y pressure_z	viscous_x viscous_y viscous_z
0.0075         -7.305171e-06 -5.478003e-06 2.340623e-09 -7.404019e-06 -5.503816e-06 -1.419119e-16 9.884815e-08 2.581248e-08 2.340623e-09
0.015          1.085331e-05 1.210740e-05 -9.269743e-09 1.142181e-05 1.210132e-05 2.102404e-16 -5.684980e-07 6.077492e-09 -9.269743e-09
0.0225         -2.501185e-05 4.831606e-05 -2.652067e-09 -2.591671e-05 4.831509e-05 6.307753e-16 9.048629e-07 9.783273e-10 -2.652067e-09
0.03           1.503547e-05 -6.194340e-06 3.435102e-08 1.186453e-05 -6.221608e-06 4.106687e-16 3.170944e-06 2.726806e-08 3.435102e-08
0.0375         1.231730e-05 -2.912381e-06 4.808134e-08 9.038707e-06 -2.903205e-06 -1.001993e-15 3.278590e-06 -9.176122e-09 4.808134e-08
0.045          9.633711e-06 -7.521435e-07 4.523856e-08 7.118410e-06 -7.099905e-07 -9.913809e-16 2.515301e-06 -4.215295e-08 4.523856e-08
0.0525         7.785863e-06 -2.813576e-07 4.245126e-08 5.790449e-06 -2.347171e-07 -8.319219e-16 1.995415e-06 -4.664054e-08 4.245126e-08
0.06           6.737361e-06 -3.884427e-07 4.003385e-08 5.057883e-06 -3.433480e-07 -7.251686e-16 1.679478e-06 -4.509466e-08 4.003385e-08
0.0675         6.075292e-06 -4.130136e-07 3.762433e-08 4.582326e-06 -3.702387e-07 -6.300434e-16 1.492966e-06 -4.277493e-08 3.762434e-08
0.075          5.198027e-06 -4.064215e-07 3.518206e-08 3.827120e-06 -3.657052e-07 -5.541493e-16 1.370907e-06 -4.071626e-08 3.518206e-08
0.0825         4.369219e-06 -5.250381e-07 3.277291e-08 3.071342e-06 -4.858498e-07 -4.914553e-16 1.297877e-06 -3.918831e-08 3.277291e-08
0.09           3.553731e-06 -5.708496e-07 3.043970e-08 2.316669e-06 -5.329284e-07 -4.346024e-16 1.237062e-06 -3.792118e-08 3.043970e-08
0.0975         3.458005e-06 -5.290940e-07 2.819045e-08 2.264032e-06 -4.922168e-07 -3.912344e-16 1.193973e-06 -3.687719e-08 2.819045e-08
0.105          3.182042e-06 -4.451261e-07 2.603013e-08 2.044878e-06 -4.090872e-07 -3.392198e-16 1.137164e-06 -3.603886e-08 2.603013e-08
0.1125         2.755245e-06 -2.780750e-07 2.402721e-08 1.678796e-06 -2.428599e-07 -3.116946e-16 1.076450e-06 -3.521509e-08 2.402721e-08
0.12           2.738058e-06 -2.869466e-07 2.221499e-08 1.713260e-06 -2.525453e-07 -2.938052e-16 1.024798e-06 -3.440131e-08 2.221499e-08
0.1275         2.109493e-06 -2.566398e-07 2.054799e-08 1.129786e-06 -2.228962e-07 -2.528902e-16 9.797073e-07 -3.374361e-08 2.054799e-08
0.135          2.208317e-06 -2.377486e-07 1.902728e-08 1.274928e-06 -2.046011e-07 -2.228442e-16 9.333891e-07 -3.314744e-08 1.902728e-08
0.1425         2.080598e-06 -1.660368e-07 1.762030e-08 1.194071e-06 -1.335375e-07 -2.016209e-16 8.865273e-07 -3.249935e-08 1.762030e-08
0.15           1.886240e-06 -2.103652e-07 1.632966e-08 1.040549e-06 -1.784541e-07 -1.888003e-16 8.456907e-07 -3.191106e-08 1.632966e-08
0.1575         1.872394e-06 -1.747744e-07 1.516935e-08 1.066200e-06 -1.433726e-07 -1.851140e-16 8.061935e-07 -3.140179e-08 1.516935e-08
0.165          1.508965e-06 -1.487950e-07 1.411516e-08 7.390711e-07 -1.180468e-07 -1.387508e-16 7.698939e-07 -3.074827e-08 1.411516e-08
0.1725         1.517254e-06 -1.340980e-07 1.314015e-08 7.786667e-07 -1.038730e-07 -1.293318e-16 7.385869e-07 -3.022501e-08 1.314015e-08
0.18           1.415155e-06 -1.459891e-07 1.223040e-08 7.059946e-07 -1.162886e-07 -1.168363e-16 7.091609e-07 -2.970050e-08 1.223040e-08
0.1875         1.339171e-06 -1.488200e-07 1.141241e-08 6.575589e-07 -1.196173e-07 -1.013187e-16 6.816122e-07 -2.920271e-08 1.141241e-08
0.195          1.581478e-06 -5.136915e-08 1.068962e-08 9.265687e-07 -2.280631e-08 -8.534026e-17 6.549097e-07 -2.856284e-08 1.068962e-08
0.2025         1.312466e-06 -1.109229e-07 9.986203e-09 6.826827e-07 -8.285025e-08 -8.004123e-17 6.297833e-07 -2.807261e-08 9.986203e-09
0.21           1.291004e-06 -1.197542e-07 9.317950e-09 6.826383e-07 -9.209301e-08 -7.655823e-17 6.083653e-07 -2.766117e-08 9.317950e-09
0.2175         1.290249e-06 -6.280599e-08 8.735747e-09 7.020940e-07 -3.564088e-08 -6.223320e-17 5.881551e-07 -2.716511e-08 8.735747e-09
0.225          1.256184e-06 -3.975430e-08 8.207182e-09 6.892695e-07 -1.323964e-08 -4.714924e-17 5.669148e-07 -2.651467e-08 8.207182e-09
0.2325         1.156034e-06 -4.181334e-08 7.713272e-09 6.101642e-07 -1.590963e-08 -4.217546e-17 5.458699e-07 -2.590371e-08 7.713272e-09
0.24           1.113233e-06 -4.219817e-08 7.253285e-09 5.852881e-07 -1.676110e-08 -2.883978e-17 5.279448e-07 -2.543707e-08 7.253285e-09
0.2475         1.162873e-06 -5.505570e-08 6.822604e-09 6.503588e-07 -3.006742e-08 -3.346119e-17 5.125140e-07 -2.498828e-08 6.822604e-09
0.255          1.021560e-06 -5.195657e-08 6.423731e-09 5.259091e-07 -2.740886e-08 -2.424547e-17 4.956506e-07 -2.454770e-08 6.423731e-09
0.2625         1.113216e-06 -4.286804e-08 6.052198e-09 6.334717e-07 -1.877559e-08 -1.551764e-17 4.797444e-07 -2.409245e-08 6.052198e-09
0.27           1.061336e-06 -4.135445e-08 5.705200e-09 5.964155e-07 -1.771214e-08 -1.362029e-17 4.649207e-07 -2.364232e-08 5.705200e-09
0.2775         8.667317e-07 -5.507608e-08 5.382482e-09 4.161631e-07 -3.179171e-08 -8.985326e-18 4.505687e-07 -2.328437e-08 5.382482e-09
0.285          9.663678e-07 -5.274646e-08 5.083234e-09 5.285057e-07 -2.977357e-08 -2.392021e-18 4.378621e-07 -2.297289e-08 5.083234e-09
0.2925         9.051308e-07 -5.088079e-08 4.803881e-09 4.799192e-07 -2.828299e-08 3.726945e-19 4.252116e-07 -2.259781e-08 4.803881e-09
0.3            9.378533e-07 -5.247971e-08 4.542111e-09 5.248466e-07 -3.022940e-08 4.533320e-18 4.130066e-07 -2.225031e-08 4.542111e-09
0.3075         9.204706e-07 -4.976657e-08 4.295970e-09 5.175382e-07 -2.782166e-08 1.172294e-17 4.029324e-07 -2.194491e-08 4.295970e-09
0.315          8.699776e-07 -6.300859e-08 4.069049e-09 4.763759e-07 -4.136035e-08 6.173176e-18 3.936017e-07 -2.164824e-08 4.069049e-09
0.3225         8.521766e-07 -5.465725e-08 3.858657e-09 4.685791e-07 -3.328356e-08 1.275293e-17 3.835975e-07 -2.137370e-08 3.858657e-09
0.33           7.535600e-07 -5.289708e-08 3.660516e-09 3.801095e-07 -3.173985e-08 1.693388e-17 3.734505e-07 -2.115723e-08 3.660516e-09
0.3375         7.676729e-07 -6.109104e-08 3.473875e-09 4.032128e-07 -4.011870e-08 1.858729e-17 3.644601e-07 -2.097233e-08 3.473875e-09
0.345          9.127680e-07 -5.175457e-08 3.298871e-09 5.552158e-07 -3.089625e-08 1.658829e-17 3.575522e-07 -2.085833e-08 3.298871e-09
0.3525         7.926375e-07 -6.365626e-08 3.134552e-09 4.450902e-07 -4.323922e-08 3.108950e-17 3.475473e-07 -2.041704e-08 3.134552e-09
0.36           8.237427e-07 -6.266861e-08 2.978741e-09 4.887769e-07 -4.295158e-08 2.649519e-17 3.349658e-07 -1.971703e-08 2.978741e-09
0.3675         8.130064e-07 -5.835924e-08 2.835214e-09 4.819790e-07 -3.882653e-08 2.993076e-17 3.310273e-07 -1.953271e-08 2.835214e-09
0.375          7.684614e-07 -6.422939e-08 2.701569e-09 4.428882e-07 -4.478707e-08 3.573801e-17 3.255732e-07 -1.944232e-08 2.701569e-09
0.3825         6.514715e-07 -5.766919e-08 2.574222e-09 3.335953e-07 -3.839826e-08 3.354250e-17 3.178762e-07 -1.927093e-08 2.574222e-09
0.39           8.366296e-07 -5.810783e-08 2.454090e-09 5.235365e-07 -3.901520e-08 3.435566e-17 3.130931e-07 -1.909263e-08 2.454090e-09
0.3975         6.937401e-07 -6.079937e-08 2.340173e-09 3.865875e-07 -4.187867e-08 3.521624e-17 3.071526e-07 -1.892069e-08 2.340173e-09
0.405          7.891351e-07 -5.625143e-08 2.232997e-09 4.872060e-07 -3.750757e-08 3.762182e-17 3.019291e-07 -1.874387e-08 2.232997e-09
0.4125         7.822401e-07 -6.496804e-08 2.131635e-09 4.845579e-07 -4.637925e-08 3.628012e-17 2.976821e-07 -1.858879e-08 2.131635e-09
0.42           7.305011e-07 -6.492948e-08 2.036103e-09 4.382183e-07 -4.650488e-08 3.766925e-17 2.922828e-07 -1.842460e-08 2.036103e-09
0.4275         7.019689e-07 -6.288241e-08 1.945621e-09 4.150424e-07 -4.458764e-08 3.854339e-17 2.869265e-07 -1.829477e-08 1.945621e-09
0.435          7.199537e-07 -6.331053e-08 1.859705e-09 4.376636e-07 -4.517655e-08 3.939042e-17 2.822901e-07 -1.813398e-08 1.859705e-09
0.4425         7.571758e-07 -6.161610e-08 1.778151e-09 4.787317e-07 -4.364303e-08 3.987153e-17 2.784441e-07 -1.797308e-08 1.778151e-09
0.45           6.888808e-07 -6.388815e-08 1.700809e-09 4.168865e-07 -4.612733e-08 3.644952e-17 2.719944e-07 -1.776081e-08 1.700809e-09
0.4575         7.286612e-07 -6.480413e-08 1.628041e-09 4.606037e-07 -4.720365e-08 4.479110e-17 2.680576e-07 -1.760048e-08 1.628041e-09
0.465          7.818994e-07 -6.636832e-08 1.558095e-09 5.150596e-07 -4.884195e-08 4.216869e-17 2.668398e-07 -1.752637e-08 1.558095e-09
0.4725         7.708468e-07 -6.368005e-08 1.490972e-09 5.071937e-07 -4.629095e-08 4.275145e-17 2.636531e-07 -1.738910e-08 1.490972e-09
0.48           7.446968e-07 -6.647513e-08 1.429438e-09 4.840706e-07 -4.924519e-08 4.159948e-17 2.606262e-07 -1.722994e-08 1.429438e-09
0.4875         6.906394e-07 -6.405895e-08 1.370291e-09 4.341735e-07 -4.699345e-08 4.184343e-17 2.564659e-07 -1.706550e-08 1.370291e-09
0.495          7.473618e-07 -6.513797e-08 1.313437e-09 4.948791e-07 -4.823107e-08 4.306316e-17 2.524828e-07 -1.690690e-08 1.313437e-09
0.5025         6.778655e-07 -6.304549e-08 1.259530e-09 4.298144e-07 -4.630459e-08 4.473012e-17 2.480511e-07 -1.674090e-08 1.259530e-09
0.51           7.052919e-07 -6.692057e-08 1.208117e-09 4.591427e-07 -5.027981e-08 4.499439e-17 2.461492e-07 -1.664076e-08 1.208117e-09
0.5175         7.654338e-07 -6.911633e-08 1.159662e-09 5.213447e-07 -5.260313e-08 4.687142e-17 2.440891e-07 -1.651320e-08 1.159662e-09
0.525          6.497171e-07 -6.589909e-08 1.112851e-09 4.094202e-07 -4.956355e-08 4.464202e-17 2.402969e-07 -1.633554e-08 1.112851e-09
0.5325         8.020599e-07 -6.692647e-08 1.066969e-09 5.639953e-07 -5.073345e-08 4.439130e-17 2.380647e-07 -1.619302e-08 1.066969e-09
0.54           7.095805e-07 -6.705251e-08 1.023814e-09 4.736889e-07 -5.098124e-08 4.438453e-17 2.358916e-07 -1.607127e-08 1.023813e-09
0.5475         7.065167e-07 -6.724481e-08 9.836426e-10 4.730801e-07 -5.129957e-08 4.006127e-17 2.334366e-07 -1.594524e-08 9.836426e-10
0.555          8.450680e-07 -6.895212e-08 9.445597e-10 6.122949e-07 -5.310533e-08 4.520445e-17 2.327732e-07 -1.584678e-08 9.445596e-10
0.5625         7.149123e-07 -6.905501e-08 9.071487e-10 4.839511e-07 -5.334315e-08 4.057627e-17 2.309612e-07 -1.571186e-08 9.071486e-10
0.57           6.583798e-07 -6.657610e-08 8.708449e-10 4.333906e-07 -5.107392e-08 5.023922e-17 2.249892e-07 -1.550218e-08 8.708449e-10
0.5775         7.826132e-07 -7.040827e-08 8.368334e-10 5.595600e-07 -5.504496e-08 3.726945e-17 2.230532e-07 -1.536331e-08 8.368334e-10
0.585          7.813029e-07 -6.673558e-08 8.039175e-10 5.588769e-07 -5.149387e-08 4.424900e-17 2.224261e-07 -1.524171e-08 8.039174e-10
0.5925         7.290540e-07 -6.976407e-08 7.719137e-10 5.081905e-07 -5.464331e-08 4.209415e-17 2.208635e-07 -1.512076e-08 7.719137e-10
0.6            7.526586e-07 -6.866831e-08 7.413949e-10 5.341698e-07 -5.369101e-08 4.168080e-17 2.184888e-07 -1.497730e-08 7.413949e-10
0.6075         6.480297e-07 -6.689280e-08 7.119049e-10 4.331407e-07 -5.205378e-08 4.183665e-17 2.148891e-07 -1.483902e-08 7.119049e-10
0.615          8.671056e-07 -7.579048e-08 6.842731e-10 6.523473e-07 -6.105579e-08 4.037298e-17 2.147583e-07 -1.473469e-08 6.842730e-10
0.6225         8.041771e-07 -6.965418e-08 6.571276e-10 5.897126e-07 -5.504730e-08 4.199251e-17 2.144645e-07 -1.460688e-08 6.571276e-10
0.63           7.775106e-07 -6.867371e-08 6.304737e-10 5.648996e-07 -5.421978e-08 4.334098e-17 2.126111e-07 -1.445393e-08 6.304737e-10
0.6375         7.250257e-07 -7.061249e-08 6.046018e-10 5.150342e-07 -5.629664e-08 4.047462e-17 2.099915e-07 -1.431585e-08 6.046018e-10
0.645          8.101636e-07 -6.977661e-08 5.801439e-10 6.013948e-07 -5.558214e-08 4.142330e-17 2.087688e-07 -1.419447e-08 5.801438e-10
0.6525         7.455294e-07 -7.166216e-08 5.561033e-10 5.389161e-07 -5.759937e-08 3.999351e-17 2.066133e-07 -1.406279e-08 5.561033e-10
0.66           7.962657e-07 -7.209747e-08 5.331364e-10 5.905303e-07 -5.814772e-08 3.899062e-17 2.057354e-07 -1.394975e-08 5.331363e-10
0.6675         7.417862e-07 -6.984217e-08 5.107388e-10 5.377089e-07 -5.603592e-08 4.048817e-17 2.040773e-07 -1.380625e-08 5.107387e-10
0.675          8.247463e-07 -7.303663e-08 4.891641e-10 6.220722e-07 -5.935111e-08 3.854339e-17 2.026741e-07 -1.368552e-08 4.891640e-10
0.6825         7.768104e-07 -7.033272e-08 4.682010e-10 5.755440e-07 -5.677516e-08 3.967502e-17 2.012664e-07 -1.355756e-08 4.682009e-10
0.69           5.959148e-07 4.534334e-08 4.014696e-10 3.890724e-07 5.869444e-08 3.361027e-17 2.068424e-07 -1.335110e-08 4.014696e-10
0.6975         5.936751e-07 2.463307e-08 3.447105e-10 3.807338e-07 3.786960e-08 3.059483e-17 2.129413e-07 -1.323653e-08 3.447105e-10
0.705          6.563267e-07 2.284926e-08 3.078801e-10 4.397265e-07 3.604392e-08 2.680690e-17 2.166002e-07 -1.319466e-08 3.078800e-10
0.7125         7.469425e-07 1.890350e-08 2.757238e-10 5.270626e-07 3.209966e-08 2.536355e-17 2.198799e-07 -1.319616e-08 2.757238e-10
0.72           6.622014e-07 1.962717e-08 2.466403e-10 4.413060e-07 3.277368e-08 2.154174e-17 2.208954e-07 -1.314651e-08 2.466403e-10
0.7275         7.515596e-07 1.496864e-08 2.204052e-10 5.296463e-07 2.807456e-08 1.989511e-17 2.219132e-07 -1.310592e-08 2.204052e-10
0.735          7.582665e-07 1.196808e-08 1.960159e-10 5.359091e-07 2.503226e-08 1.799776e-17 2.223574e-07 -1.306419e-08 1.960159e-10
0.7425         7.496377e-07 1.126357e-08 1.732223e-10 5.273005e-07 2.426357e-08 1.684579e-17 2.223372e-07 -1.300000e-08 1.732222e-10
0.75           7.788768e-07 1.000345e-08 1.514288e-10 5.565735e-07 2.293120e-08 1.251576e-17 2.223033e-07 -1.292775e-08 1.514288e-10
0.7575         7.910870e-07 6.355041e-09 1.306362e-10 5.690543e-07 1.921906e-08 1.292233e-17 2.220327e-07 -1.286402e-08 1.306362e-10
0.765          8.295949e-07 3.477824e-09 1.108358e-10 6.082526e-07 1.627842e-08 1.193978e-17 2.213423e-07 -1.280060e-08 1.108358e-10
0.7725         7.805643e-07 3.558907e-09 9.168977e-11 5.594305e-07 1.628455e-08 9.513874e-18 2.211338e-07 -1.272565e-08 9.168976e-11
0.78           9.092892e-07 3.322052e-09 2.570203e-10 6.880173e-07 1.614343e-08 8.558421e-18 2.212719e-07 -1.282138e-08 2.570203e-10
0.7875         8.515191e-07 -6.246357e-10 6.619715e-10 6.341105e-07 1.235000e-08 6.803369e-18 2.174086e-07 -1.297464e-08 6.619715e-10
0.795          8.828371e-07 -1.431752e-09 1.010777e-09 6.695691e-07 1.163762e-08 7.094748e-18 2.132679e-07 -1.306938e-08 1.010777e-09
0.8025         9.251925e-07 -3.749611e-09 1.208514e-09 7.142427e-07 9.406054e-09 6.647515e-18 2.109498e-07 -1.315566e-08 1.208514e-09
0.81           9.266441e-07 -6.188110e-09 1.304268e-09 7.176084e-07 7.029640e-09 8.206055e-18 2.090357e-07 -1.321775e-08 1.304268e-09
0.8175         9.006490e-07 -8.154214e-09 1.327601e-09 6.939937e-07 5.086491e-09 9.703609e-18 2.066553e-07 -1.324070e-08 1.327601e-09
0.825          9.634354e-07 -1.014222e-08 1.299246e-09 7.594266e-07 3.088635e-09 8.876905e-18 2.040088e-07 -1.323086e-08 1.299246e-09
0.8325         9.300249e-07 -1.251556e-08 1.232416e-09 7.280014e-07 7.269273e-10 9.297034e-18 2.020235e-07 -1.324249e-08 1.232416e-09
0.84           9.411624e-07 -1.174147e-08 1.136546e-09 7.410468e-07 1.457890e-09 1.173649e-17 2.001156e-07 -1.319936e-08 1.136546e-09
0.8475         9.527577e-07 -1.580344e-08 1.019719e-09 7.551009e-07 -2.635355e-09 9.290257e-18 1.976568e-07 -1.316808e-08 1.019719e-09
0.855          9.550757e-07 -1.515606e-08 8.863309e-10 7.591145e-07 -2.033792e-09 1.232602e-17 1.959612e-07 -1.312227e-08 8.863309e-10
0.8625         9.443748e-07 -1.844134e-08 7.403137e-10 7.499592e-07 -5.343662e-09 1.122149e-17 1.944156e-07 -1.309768e-08 7.403136e-10
0.87           9.705783e-07 -1.943705e-08 5.836201e-10 7.775871e-07 -6.371812e-09 1.290201e-17 1.929912e-07 -1.306524e-08 5.836201e-10
0.8775         9.596424e-07 -2.094473e-08 4.200091e-10 7.681104e-07 -7.916340e-09 1.253609e-17 1.915320e-07 -1.302839e-08 4.200091e-10
0.885          9.605715e-07 -2.241551e-08 2.520748e-10 7.711597e-07 -9.444839e-09 1.311207e-17 1.894118e-07 -1.297068e-08 2.520748e-10
0.8925         9.436417e-07 -2.279486e-08 8.114861e-11 7.565408e-07 -9.891082e-09 1.381003e-17 1.871009e-07 -1.290377e-08 8.114860e-11
0.9            9.796321e-07 -2.430501e-08 -9.215151e-11 7.934123e-07 -1.144443e-08 1.368805e-17 1.862199e-07 -1.286058e-08 -9.215152e-11
0.9075         1.004868e-06 -2.715596e-08 -2.648728e-10 8.191724e-07 -1.432194e-08 1.534824e-17 1.856956e-07 -1.283402e-08 -2.648728e-10
0.915          9.901269e-07 -2.807497e-08 -4.370764e-10 8.055128e-07 -1.527433e-08 1.430469e-17 1.846141e-07 -1.280064e-08 -4.370764e-10
0.9225         9.850098e-07 -2.891926e-08 -6.079162e-10 8.016649e-07 -1.616299e-08 1.655441e-17 1.833449e-07 -1.275627e-08 -6.079162e-10
0.93           9.693787e-07 -2.890105e-08 -7.764839e-10 7.876145e-07 -1.620711e-08 1.434535e-17 1.817642e-07 -1.269394e-08 -7.764840e-10
0.9375         1.042643e-06 -3.219840e-08 -9.433362e-10 8.613319e-07 -1.952107e-08 1.467061e-17 1.813106e-07 -1.267733e-08 -9.433362e-10
0.945          1.031473e-06 -3.414827e-08 -1.108224e-09 8.506418e-07 -2.147938e-08 1.639178e-17 1.808312e-07 -1.266889e-08 -1.108224e-09
0.9525         9.571619e-07 -3.194959e-08 -1.269109e-09 7.782523e-07 -1.934488e-08 1.772671e-17 1.789096e-07 -1.260471e-08 -1.269109e-09
0.96           9.974332e-07 -3.330585e-08 -1.426162e-09 8.199975e-07 -2.077757e-08 1.544988e-17 1.774357e-07 -1.252829e-08 -1.426162e-09
0.9675         9.899781e-07 -3.487101e-08 -1.579700e-09 8.136789e-07 -2.239506e-08 1.707618e-17 1.762992e-07 -1.247595e-08 -1.579700e-09
0.975          1.013836e-06 -3.585897e-08 -1.729796e-09 8.384971e-07 -2.342610e-08 1.854663e-17 1.753386e-07 -1.243288e-08 -1.729796e-09
0.9825         9.906651e-07 -3.698601e-08 -1.874298e-09 8.164782e-07 -2.460484e-08 1.822137e-17 1.741870e-07 -1.238118e-08 -1.874298e-09
0.99           9.983671e-07 -3.670084e-08 -2.014130e-09 8.254707e-07 -2.438528e-08 2.016616e-17 1.728964e-07 -1.231556e-08 -2.014130e-09
0.9975         1.007606e-06 -3.843938e-08 -2.149564e-09 8.356765e-07 -2.617592e-08 1.798420e-17 1.719298e-07 -1.226346e-08 -2.149564e-09
1.005          9.891015e-07 -3.960839e-08 -2.280379e-09 8.183239e-07 -2.738286e-08 2.064728e-17 1.707776e-07 -1.222553e-08 -2.280379e-09
1.0125         1.003055e-06 -3.944281e-08 -2.406231e-09 8.332759e-07 -2.727576e-08 1.816716e-17 1.697789e-07 -1.216705e-08 -2.406231e-09
1.02           9.869865e-07 -4.073502e-08 -2.527542e-09 8.185108e-07 -2.862762e-08 1.982735e-17 1.684757e-07 -1.210740e-08 -2.527542e-09
1.0275         1.032778e-06 -4.157672e-08 -2.644037e-09 8.648784e-07 -2.951342e-08 1.872959e-17 1.678994e-07 -1.206329e-08 -2.644037e-09
1.035          1.017332e-06 -4.319189e-08 -2.756269e-09 8.502341e-07 -3.116571e-08 1.588356e-17 1.670976e-07 -1.202619e-08 -2.756269e-09
1.0425         9.609513e-07 -4.150942e-08 -2.863722e-09 7.955379e-07 -2.955487e-08 2.000353e-17 1.654134e-07 -1.195455e-08 -2.863722e-09
1.05           1.030378e-06 -4.528044e-08 -2.966482e-09 8.656327e-07 -3.335597e-08 1.740144e-17 1.647448e-07 -1.192447e-08 -2.966482e-09
1.0575         9.732405e-07 -4.288254e-08 -3.064624e-09 8.095610e-07 -3.101398e-08 1.681191e-17 1.636795e-07 -1.186856e-08 -3.064624e-09
1.065          1.027723e-06 -4.497944e-08 -3.158083e-09 8.649350e-07 -3.316493e-08 1.764539e-17 1.627881e-07 -1.181451e-08 -3.158083e-09
1.0725         1.002333e-06 -4.511304e-08 -3.247285e-09 8.405275e-07 -3.335578e-08 1.521949e-17 1.618057e-07 -1.175726e-08 -3.247285e-09
1.08           9.946637e-07 -4.575013e-08 -3.332304e-09 8.343280e-07 -3.408954e-08 1.696776e-17 1.603357e-07 -1.166059e-08 -3.332304e-09
1.0875         1.012873e-06 -4.649903e-08 -3.413159e-09 8.535162e-07 -3.489266e-08 1.681869e-17 1.593571e-07 -1.160637e-08 -3.413159e-09
1.095          1.000714e-06 -4.755908e-08 -3.490117e-09 8.422453e-07 -3.598921e-08 1.509752e-17 1.584688e-07 -1.156987e-08 -3.490117e-09
1.1025         9.725994e-07 -4.688295e-08 -3.562936e-09 8.154402e-07 -3.537067e-08 1.570738e-17 1.571592e-07 -1.151228e-08 -3.562936e-09
1.11           1.046948e-06 -4.827159e-08 -3.631460e-09 8.902464e-07 -3.680593e-08 1.543633e-17 1.567020e-07 -1.146565e-08 -3.631460e-09
1.1175         1.002993e-06 -4.796776e-08 -3.696435e-09 8.469555e-07 -3.655186e-08 1.532791e-17 1.560376e-07 -1.141590e-08 -3.696435e-09
1.125          1.004702e-06 -4.874948e-08 -3.756516e-09 8.496469e-07 -3.738312e-08 1.456897e-17 1.550547e-07 -1.136636e-08 -3.756516e-09
1.1325         1.015593e-06 -4.894904e-08 -3.812341e-09 8.614434e-07 -3.763395e-08 1.352542e-17 1.541498e-07 -1.131508e-08 -3.812341e-09
1.14           9.975091e-07 -4.969333e-08 -3.865093e-09 8.443064e-07 -3.842622e-08 1.393877e-17 1.532027e-07 -1.126711e-08 -3.865093e-09
1.1475         1.006762e-06 -5.006226e-08 -3.913989e-09 8.544431e-07 -3.884056e-08 1.418272e-17 1.523191e-07 -1.122170e-08 -3.913989e-09
1.155          9.806780e-07 -4.924811e-08 -3.959604e-09 8.293683e-07 -3.808413e-08 1.402687e-17 1.513097e-07 -1.116399e-08 -3.959604e-09
1.1625         9.841374e-07 -5.040409e-08 -4.001752e-09 8.341435e-07 -3.929791e-08 1.304431e-17 1.499939e-07 -1.110618e-08 -4.001752e-09
1.17           1.010918e-06 -5.136403e-08 -4.040446e-09 8.615949e-07 -4.029371e-08 1.332891e-17 1.493229e-07 -1.107032e-08 -4.040446e-09
1.1775         9.823124e-07 -5.176530e-08 -4.075631e-09 8.338388e-07 -4.073305e-08 1.347799e-17 1.484736e-07 -1.103225e-08 -4.075631e-09
1.185          9.804280e-07 -5.200525e-08 -4.107574e-09 8.329957e-07 -4.101805e-08 1.280714e-17 1.474324e-07 -1.098720e-08 -4.107574e-09
1.1925         9.996116e-07 -5.148619e-08 -4.136692e-09 8.529913e-07 -4.055516e-08 1.291556e-17 1.466203e-07 -1.093103e-08 -4.136692e-09
1.2            9.987287e-07 -5.216540e-08 -4.162870e-09 8.528459e-07 -4.128068e-08 1.187879e-17 1.458828e-07 -1.088472e-08 -4.162870e-09
1.2075         9.906329e-07 -5.243777e-08 -4.186219e-09 8.455943e-07 -4.160055e-08 1.188557e-17 1.450386e-07 -1.083721e-08 -4.186219e-09
1.215          9.893169e-07 -5.295981e-08 -4.206169e-09 8.451720e-07 -4.216509e-08 1.212951e-17 1.441449e-07 -1.079472e-08 -4.206169e-09
1.2225         9.753460e-07 -5.197550e-08 -4.223142e-09 8.322078e-07 -4.123960e-08 1.039479e-17 1.431381e-07 -1.073590e-08 -4.223142e-09
1.23           9.739436e-07 -5.451847e-08 -4.237714e-09 8.317536e-07 -4.381504e-08 1.138412e-17 1.421901e-07 -1.070343e-08 -4.237714e-09
1.2375         1.019673e-06 -5.430466e-08 -4.249937e-09 8.780016e-07 -4.363965e-08 1.105209e-17 1.416718e-07 -1.066501e-08 -4.249937e-09
1.245          9.760966e-07 -5.314232e-08 -4.259552e-09 8.354275e-07 -4.253392e-08 9.649399e-18 1.406691e-07 -1.060840e-08 -4.259552e-09
1.2525         9.495282e-07 -5.331535e-08 -4.266418e-09 8.100031e-07 -4.276060e-08 1.137057e-17 1.395251e-07 -1.055475e-08 -4.266418e-09
1.26           1.016393e-06 -5.498712e-08 -4.271296e-09 8.773636e-07 -4.446266e-08 1.017117e-17 1.390298e-07 -1.052446e-08 -4.271296e-09
1.2675         9.760380e-07 -5.358291e-08 -4.273885e-09 8.377867e-07 -4.311598e-08 9.778148e-18 1.382513e-07 -1.046693e-08 -4.273885e-09
1.275          9.873278e-07 -5.428507e-08 -4.274522e-09 8.499854e-07 -4.386501e-08 1.013051e-17 1.373424e-07 -1.042006e-08 -4.274522e-09
1.2825         9.743755e-07 -5.478356e-08 -4.272530e-09 8.378148e-07 -4.440892e-08 9.879792e-18 1.365607e-07 -1.037464e-08 -4.272530e-09
1.29           9.841735e-07 -5.537022e-08 -4.268396e-09 8.483397e-07 -4.502478e-08 8.639736e-18 1.358338e-07 -1.034544e-08 -4.268396e-09
1.2975         9.738829e-07 -5.409175e-08 -4.262215e-09 8.388836e-07 -4.380837e-08 9.771372e-18 1.349993e-07 -1.028337e-08 -4.262215e-09
1.305          9.762386e-07 -5.565999e-08 -4.254548e-09 8.420713e-07 -4.540927e-08 8.917563e-18 1.341673e-07 -1.025072e-08 -4.254548e-09
1.3125         9.583131e-07 -5.419428e-08 -4.244665e-09 8.252880e-07 -4.400517e-08 9.934002e-18 1.330251e-07 -1.018912e-08 -4.244665e-09
1.32           1.007021e-06 -5.532685e-08 -4.232789e-09 8.743183e-07 -4.518045e-08 8.524540e-18 1.327024e-07 -1.014639e-08 -4.232789e-09
1.3275         9.715074e-07 -5.501099e-08 -4.218900e-09 8.394265e-07 -4.490897e-08 8.416119e-18 1.320808e-07 -1.010202e-08 -4.218900e-09
1.335          9.777754e-07 -5.578906e-08 -4.203325e-09 8.465808e-07 -4.572549e-08 9.303810e-18 1.311946e-07 -1.006357e-08 -4.203325e-09
1.3425         9.490039e-07 -5.540718e-08 -4.186476e-09 8.189354e-07 -4.538642e-08 7.684283e-18 1.300685e-07 -1.002076e-08 -4.186476e-09
1.35           9.673712e-07 -5.592103e-08 -4.167850e-09 8.381158e-07 -4.594035e-08 9.425783e-18 1.292555e-07 -9.980689e-09 -4.167850e-09
1.3575         9.727974e-07 -5.571879e-08 -4.147853e-09 8.442106e-07 -4.578289e-08 7.955333e-18 1.285868e-07 -9.935902e-09 -4.147853e-09
1.365          9.361488e-07 -5.594492e-08 -4.126424e-09 8.086250e-07 -4.605313e-08 8.287370e-18 1.275238e-07 -9.891788e-09 -4.126424e-09
1.3725         9.918577e-07 -5.699393e-08 -4.103741e-09 8.647435e-07 -4.712874e-08 8.849800e-18 1.271142e-07 -9.865188e-09 -4.103741e-09
1.38           9.677105e-07 -5.649930e-08 -4.079640e-09 8.411536e-07 -4.667008e-08 7.237050e-18 1.265569e-07 -9.829219e-09 -4.079640e-09
1.3875         9.672266e-07 -5.607755e-08 -4.053973e-09 8.414811e-07 -4.629748e-08 7.799479e-18 1.257456e-07 -9.780070e-09 -4.053973e-09
1.395          9.330557e-07 -5.608877e-08 -4.026922e-09 8.084066e-07 -4.635636e-08 6.884684e-18 1.246491e-07 -9.732410e-09 -4.026922e-09
1.4025         9.509204e-07 -5.627305e-08 -3.998903e-09 8.271380e-07 -4.658202e-08 7.406456e-18 1.237824e-07 -9.691038e-09 -3.998903e-09
1.41           9.710128e-07 -5.646351e-08 -3.969979e-09 8.477423e-07 -4.681180e-08 7.087972e-18 1.232705e-07 -9.651705e-09 -3.969979e-09
1.4175         9.514271e-07 -5.620920e-08 -3.940180e-09 8.289766e-07 -4.660049e-08 7.257378e-18 1.224505e-07 -9.608705e-09 -3.940180e-09
1.425          9.663541e-07 -5.609026e-08 -3.908896e-09 8.446418e-07 -4.652972e-08 6.315478e-18 1.217123e-07 -9.560540e-09 -3.908896e-09
1.4325         9.331844e-07 -5.630072e-08 -3.876459e-09 8.124566e-07 -4.678275e-08 6.932118e-18 1.207279e-07 -9.517978e-09 -3.876459e-09
1.44           9.422653e-07 -5.604884e-08 -3.843332e-09 8.224813e-07 -4.657943e-08 5.102526e-18 1.197839e-07 -9.469412e-09 -3.843332e-09
1.4475         9.523509e-07 -5.667050e-08 -3.809762e-09 8.332428e-07 -4.723645e-08 5.841139e-18 1.191081e-07 -9.434042e-09 -3.809762e-09
1.455          9.395125e-07 -5.554894e-08 -3.774818e-09 8.212077e-07 -4.616314e-08 5.129632e-18 1.183047e-07 -9.385807e-09 -3.774818e-09
1.4625         9.565646e-07 -5.717331e-08 -3.738771e-09 8.388754e-07 -4.781865e-08 5.387130e-18 1.176891e-07 -9.354661e-09 -3.738771e-09
1.47           9.436025e-07 -5.684031e-08 -3.702099e-09 8.266506e-07 -4.752153e-08 5.149960e-18 1.169519e-07 -9.318782e-09 -3.702099e-09
1.4775         9.157051e-07 -5.568248e-08 -3.664879e-09 7.998061e-07 -4.641601e-08 5.936007e-18 1.158990e-07 -9.266475e-09 -3.664879e-09
1.485          9.832983e-07 -5.696836e-08 -3.627144e-09 8.676792e-07 -4.773711e-08 3.313593e-18 1.156191e-07 -9.231256e-09 -3.627144e-09
1.4925         9.288114e-07 -5.672163e-08 -3.588302e-09 8.139060e-07 -4.752080e-08 5.454892e-18 1.149054e-07 -9.200826e-09 -3.588302e-09
1.5            9.266289e-07 -5.605987e-08 -3.548562e-09 8.126947e-07 -4.690547e-08 4.004772e-18 1.139341e-07 -9.154400e-09 -3.548562e-09
1.5075         9.676533e-07 -5.686252e-08 -3.508795e-09 8.541544e-07 -4.774340e-08 4.580754e-18 1.134989e-07 -9.119120e-09 -3.508795e-09
1.515          9.578056e-07 -5.652895e-08 -3.468302e-09 8.447572e-07 -4.744815e-08 4.533320e-18 1.130484e-07 -9.080798e-09 -3.468302e-09
1.5225         9.281632e-07 -5.679528e-08 -3.427288e-09 8.159863e-07 -4.775060e-08 4.709503e-18 1.121770e-07 -9.044674e-09 -3.427288e-09
1.53           9.351882e-07 -5.621777e-08 -3.385829e-09 8.238381e-07 -4.721633e-08 4.289375e-18 1.113501e-07 -9.001437e-09 -3.385829e-09
1.5375         9.540464e-07 -5.735063e-08 -3.344130e-09 8.432044e-07 -4.837969e-08 4.323256e-18 1.108419e-07 -8.970945e-09 -3.344130e-09
1.545          9.255637e-07 -5.633443e-08 -3.301802e-09 8.155668e-07 -4.740199e-08 3.964114e-18 1.099969e-07 -8.932437e-09 -3.301802e-09
1.5525         9.318058e-07 -5.632741e-08 -3.259124e-09 8.226343e-07 -4.744104e-08 5.515879e-18 1.091715e-07 -8.886375e-09 -3.259124e-09
1.56           9.157277e-07 -5.531791e-08 -3.216030e-09 8.075726e-07 -4.648775e-08 4.858581e-18 1.081552e-07 -8.830157e-09 -3.216030e-09
1.5675         9.475401e-07 -5.705611e-08 -3.173006e-09 8.398496e-07 -4.825325e-08 4.892462e-18 1.076904e-07 -8.802857e-09 -3.173006e-09
1.575          9.369279e-07 -5.685413e-08 -3.129016e-09 8.297222e-07 -4.807263e-08 4.343585e-18 1.072057e-07 -8.781504e-09 -3.129016e-09
1.5825         9.287218e-07 -5.601517e-08 -3.084785e-09 8.222620e-07 -4.727987e-08 4.201283e-18 1.064597e-07 -8.735296e-09 -3.084785e-09
1.59           9.268646e-07 -5.672928e-08 -3.040170e-09 8.211507e-07 -4.802923e-08 3.225501e-18 1.057139e-07 -8.700054e-09 -3.040170e-09
1.5975         9.209009e-07 -5.555112e-08 -2.995354e-09 8.159359e-07 -4.689935e-08 3.950562e-18 1.049650e-07 -8.651777e-09 -2.995354e-09
1.605          9.245780e-07 -5.674756e-08 -2.950118e-09 8.202876e-07 -4.812581e-08 3.903128e-18 1.042904e-07 -8.621750e-09 -2.950118e-09
1.6125         9.323483e-07 -5.592694e-08 -2.905079e-09 8.286316e-07 -4.734558e-08 4.119968e-18 1.037167e-07 -8.581366e-09 -2.905079e-09
1.62           9.171677e-07 -5.619330e-08 -2.859833e-09 8.142539e-07 -4.764746e-08 3.394908e-18 1.029138e-07 -8.545842e-09 -2.859833e-09
1.6275         9.112556e-07 -5.539290e-08 -2.814615e-09 8.091741e-07 -4.689836e-08 3.293264e-18 1.020815e-07 -8.494537e-09 -2.814615e-09
1.635          9.273718e-07 -5.705051e-08 -2.768972e-09 8.258269e-07 -4.857576e-08 3.503328e-18 1.015448e-07 -8.474745e-09 -2.768972e-09
1.6425         9.088763e-07 -5.433660e-08 -2.723382e-09 8.081091e-07 -4.592297e-08 3.401684e-18 1.007673e-07 -8.413629e-09 -2.723382e-09